<?xml version="1.0"?>
<VTKFile type="UnstructuredGrid"  version="0.1"  >
<UnstructuredGrid>
<Piece  NumberOfPoints="857" NumberOfCells="3763">
<Points>
<DataArray  type="Float64"  NumberOfComponents="3"  format="ascii">-0.0182597916573 0.126128911972 -0.119588643312  -0.0077641364187 0.0512270443141 -0.07050477713349999  -0.0237180162221 0.16240182519 -0.053058128804  -0.107877351344 0.105669431388 -0.0502408407629  -0.0444478429854 0.116080775857 -0.00235075876117  0.0393674038351 0.112876079977 -0.0491501875222  0.0248903874308 0.0489483103156 0.000152088920004  0.0314915925264 0.114928804338 0.0218031276017  -0.0657326281071 0.0685198307037 0.0497140102088  -0.0355357266963 0.164656624198 0.0508319064975  -0.010538729839 -0.0422629192472 -0.208358153701  -0.0239527057856 0.0135364839807 -0.242119863629  -0.0194642152637 -0.0775559768081 -0.263431429863  -0.08492307364939999 -0.0108216870576 -0.280446648598  -0.08293507993220001 -0.0361198186874 -0.159778758883  -0.0240796487778 -0.0824203491211 -0.148982465267  0.0430508553982 -0.121076337993 -0.234084427357  0.0307756774127 0.0324950888753 -0.198437720537  0.00352357281372 -0.00433266581967 -0.144715368748  -0.0456651262939 0.08372022956609999 0.342343091965  -0.116630032659 0.0117083769292 0.386158525944  -0.08223126828669999 0.0577075146139 0.289406776428  -0.0511222109199 0.00205342215486 0.300772219896  -0.0125984866172 0.0267426930368 0.351842552423  0.0303636882454 0.0561947338283 0.391145974398  -0.0524924062192 0.0543583929539 0.40361738205  -0.07944945245979999 0.130002260208 0.441037595272  -0.000730989675503 0.119443200529 0.385622620583  -0.078488714993 0.137875169516 0.332541137934  0.0142801422626 0.110509291291 0.27100610733  0.0224165506661 0.08303219079970001 0.331783413887  -0.0170432701707 0.161798536777 0.30022162199  0.000811119796708 -0.0515509881079 -0.08419398218390001  0.0888616070151 -0.015075173229 -0.0776951387525  -0.0989535748959 -0.0518730916083 -0.08125374466180001  -0.0433920919895 -0.09785594791170001 0.0106235472485  -0.0488061010838 0.0295096840709 -0.0131453983486  -0.25 0.25 0.5  -0.166666666667 0.25 0.5  -0.25 0.195066730511 0.445658150344  -0.19506166517 0.25 0.445542865294  -0.0213422998786 -0.126349791884 -0.045622177422  -0.117952652276 0.0158270020038 -0.16616243124  -0.0531469397247 0.0490713231266 -0.13630309701  0.0358348339796 -0.131537660956 -0.134171053767  0.0583617314696 -0.115307979286 -0.0462360456586  0.010585160926 -0.0606908276677 0.314250290394  0.078067921102 -0.133790805936 0.331458956003  0.0206208750606 -0.104583717883 0.36723652482  0.0300164371729 -0.13569638133 0.270959883928  0.0797956883907 -0.07311873137949999 0.388136893511  0.0291880238801 -0.0850581228733 0.220644980669  0.0788302049041 -0.07555303722620001 0.284453928471  -0.0465739220381 -0.108428947628 0.305151432753  -0.056692365557 -0.0812899768353 0.234353885055  0.10282895714 0.0630551427603 -0.0452189296484  0.178613707423 0.153893724084 -0.0703043565154  0.0750898644328 0.130835875869 -0.116260357201  0.0179002508521 -0.0400723591447 0.396018892527  0.07961820065980001 -0.020668130368 0.232235535979  -0.00726175494492 -0.022667773068 0.242156982422  0.0524490773678 0.0171752162278 0.310696065426  0.0103002395481 0.0813155695796 0.107229083776  0.00225681974553 -0.008687185123560001 0.0457225777209  0.177950121638 0.25 0.0405701099774  0.151375159621 0.202163234353 -0.00268407491967  0.13042794168 0.172564610839 0.0599601529539  0.184557154775 0.16295710206 -0.00737970136106  0.0827306732535 0.011830884032 0.0299163535237  0.106673434377 0.0676268041134 0.0663062110543  0.25 0.25 0  0.25 0.177947182503 0.0435581305687  0.0251978598535 -0.0201241951436 -0.0233656335622  -0.25 -0.25 0.25  -0.175495340629 -0.25 0.295351832328  -0.25 -0.175776260788 0.294629825204  -0.164853364229 -0.189889326692 0.246240898967  0.111295968676 0.25 -0.00354384794953  0.0417815256417 0.25 0.0264120515999  0.0577150444892 0.25 -0.0418173710713  0.035034801811 0.196921139956 -0.0497792549431  -0.115254960954 0.0352221727371 -0.0357825122774  0.0360979661345 0.0743419006467 -0.130612716079  0.08110298216340001 0.0143552683294 -0.135737240314  0.0281950440258 0.110801942647 -0.38559025526  -0.000352636008756 0.154027625918 -0.45018479228  0.0220217909664 0.07910815626379999 -0.445265561342  -0.041934799403 0.09297795593740001 -0.440330862999  -0.115356497467 0.128115877509 0.0303980205208  -0.08144567906859999 0.192924261093 -0.0396481454372  -0.0503155887127 -0.140062868595 0.370642662048  0.0181560348719 -0.191118896008 0.319997102022  -0.09442232549189999 -0.0766885429621 0.347179293633  -0.10306725651 -0.0245223585516 0.261891931295  -0.0371639840305 -0.192689821124 0.258922994137  -0.08778057992460001 -0.193450272083 0.293951839209  -0.116932563484 -0.137108251452 0.278956532478  -0.0434515699744 -0.19969072938 0.340430229902  -0.016621209681 -0.143479332328 0.208528921008  -0.0799133181572 -0.177766740322 0.206858798862  -0.0340202823281 -0.07231882214550001 0.405357718468  -0.153045728803 -0.0703692808747 0.28540495038  -0.0647673308849 -0.069349065423 -0.297796696424  -0.0468406006694 -0.118580199778 -0.331259429455  -0.0636249184608 -0.122360698879 -0.235275790095  -0.137311711907 -0.115820750594 -0.279358655214  -0.25 -0.25 0.333333333333  -0.00222280388698 -0.0275516584516 -0.327156513929  0.0233143884689 -0.124395690858 -0.330935031176  -0.00544846989214 -0.0444226972759 -0.392852008343  -0.07202984392639999 -0.0450558848679 -0.379192590714  -0.128861442208 -0.0482712239027 -0.325591087341  -0.0319190612757 0.25 0.27473160228  0.0259018652141 0.196524605155 0.343851953745  -0.0424101948738 0.196461260319 0.324036180973  -0.08801463991400001 0.193724930286 0.280150324106  -0.051391992718 0.129726842046 0.244459152222  0.0793330296874 0.131078347564 0.273738384247  0.0304427426308 0.197590425611 0.258007407188  0.139736711979 -0.103549621999 0.308288753033  0.117407329381 -0.00031748006586 0.284001767635  0.17845864594 0.0137020656839 0.2717012465  0.133446916938 -0.07468281686309999 0.252671837807  0.193237304688 0.0103836003691 0.32706490159  0.108656100929 -0.016409387812 0.370573759079  0.195593327284 -0.0705924406648 0.374003827572  0.204297035933 -0.0882691517472 0.283604085445  0.15987212956 -0.0232784096152 0.211559042335  0.103109702468 -0.0715631917119 0.185957938433  0.25 -0.177950121638 0.0405701099774  0.25 -0.111295968676 -0.00354384794953  0.168315500021 -0.181550845504 -0.0129796266556  0.203061833978 -0.0839376300573 0.0201103240252  -0.123973377049 0.0421161539853 0.0831994190812  0.10652089864 0.041568480432 0.133020982146  -0.00508088478819 0.00464248098433 0.118765294552  0.0384838804603 0.0542355030775 0.219570666552  0.0556482039392 0.09942726045850001 0.165778696537  0.25 -0.25 0  0.25 -0.17904445884 -0.0421267671166  0.0085972994566 0.139411628246 0.206887423992  -0.0427397117019 0.0734880268574 0.199836358428  0.25 -0.25 0.166666666667  0.177338154858 -0.25 0.209433902167  0.178222204231 -0.25 0.126578397361  0.180748909712 -0.154124230146 0.180074676871  0.118582360446 0.0498475395143 0.233844980597  0.113276541233 0.115120351315 0.208414897323  0.068451166153 0.123325429857 0.09300038218499999  0.08695217221980001 0.18308262527 0.11987875402  0.1366494596 0.0978636816144 0.125807240605  0.0170362386853 0.165571182966 0.116205818951  -0.075325883925 -0.13042730093 -0.120773427188  -0.191016584635 -0.1764793396 -0.0778442546725  -0.102759346366 -0.20253264904 -0.07015967369080001  -0.126150563359 -0.115044787526 -0.0573479756713  -0.138729035854 -0.104583211243 -0.134180948138  -0.147993162274 -0.138949289918 -0.203295826912  -0.180331096053 -0.192031860352 -0.160557568073  -0.194399222732 -0.0846866071224 -0.148938387632  -0.11259970814 -0.078034222126 -0.193649172783  0.0326924659312 -0.122268341482 0.0296003930271  0.0215157996863 -0.180560961366 -0.0757267251611  0.0956164896488 -0.0493310950696 -0.0164182558656  0.112129375339 -0.112067811191 -0.105549775064  0.127802968025 -0.106147237122 -0.0110959038138  -0.0854129120708 -0.015297700651 0.056893799454  -0.0204317308962 -0.0795602425933 0.117458000779  -0.178222204231 0.25 0.126578397361  -0.177947182503 0.25 0.0435581305687  -0.107976816083 0.25 0.0905854563709  -0.157577678561 0.178241759539 0.0969507619739  0.25 -0.25 0.333333333333  0.25 -0.25 0.25  0.175776260788 -0.25 0.294629825204  0.25 -0.175495340629 0.295351832328  0.0932372882962 -0.0430554822087 0.0724518448114  -0.044769000262 -0.00661279587075 0.403999477625  -0.194478780031 -0.0247275307775 0.332954645157  -0.173761367798 -0.0806607827544 0.396263659  -0.137637495995 0.00523930834606 0.315887242556  0.0864742994308 -0.139340251684 0.176064118743  0.105438224971 -0.136641919613 0.253711819649  0.0308670303835 -0.25 -0.136809572586  0.0367561832589 -0.25 -0.219583441074  0.0925811678171 -0.20055809617 -0.19996842742  0.0127155454829 -0.193433105946 -0.225977659225  0.0415658205748 -0.200880005956 0.196522325277  0.0373581312597 -0.119548290968 0.120048768818  -0.0954102815882 -0.25 0.346414074494  -0.101368582479 -0.25 0.251933327382  -0.0374909392175 -0.25 0.286229296012  0.0852289572358 0.109103307128 -0.27055695653  0.07707493752239999 0.127253636718 -0.199824258685  0.128097131848 0.07648140937090001 -0.209757223725  0.154867321253 0.13628205657 -0.212952241302  0.08678253740069999 0.189277544618 -0.274375885725  0.127699971199 0.0803090333939 -0.326344817877  0.0577741526067 0.0601542405784 -0.31936660409  0.0525139421225 0.129102528095 -0.326874881983  0.0251371748745 0.175572559237 -0.261228203773  0.0199144631624 0.0927290171385 -0.265960127115  -0.148952946067 -0.121583275497 -0.374568909407  -0.25 0.177950121638 0.0405701099774  -0.25 0.111295968676 -0.00354384794953  -0.175531774759 0.135734900832 0.0562076568604  -0.178730383515 0.191659659147 -0.00562386959791  -0.0244714934379 -0.108516678214 -0.387223660946  -0.09279609471560001 -0.170035287738 -0.445968538523  -0.0281062982976 -0.0
[...]
<PointData  Vectors="f_104"> 
<DataArray  type="Float64"  Name="f_104"  NumberOfComponents="3" format="ascii">1.5184175763309118e-05 4.6875008284725795e-04 1.4483779639133548e-01  2.8139621133808928e-04 3.2518458006832379e-04 1.7398308773933646e-01  -5.5357053631589857e-05 3.6128761021089696e-04 1.2008130153722874e-01  -1.3438460533452448e-04 -8.2124356406166424e-07 1.3697371367602479e-01  -5.5290696200426274e-04 3.7021027622135096e-04 1.4896523457780045e-01  -4.3208191880368554e-04 -4.7249764663459174e-04 1.5101334959685286e-01  1.3057181363299524e-04 1.1780542519149265e-04 1.7329940061255822e-01  -2.5551286643016958e-04 2.5804223426446606e-04 1.5013422619346273e-01  -7.2607717213770361e-04 2.4400379546687392e-04 1.6230480458480520e-01  -4.2952277328687302e-05 8.7368695615233920e-04 1.1825852455614103e-01  -3.8675348363195950e-04 1.0417756326800260e-05 1.7527832455489223e-01  -1.3652677205266259e-05 5.3097918891918864e-05 1.7730288381080067e-01  2.6829027135795140e-05 1.2701782545412453e-04 1.6539656635981842e-01  3.3687250795392698e-05 -5.8956840157384936e-05 1.6279508382170721e-01  1.9845897752484388e-04 3.8148848573666869e-04 1.6256874520312503e-01  -1.0121856618956335e-04 -1.1540226218792666e-04 1.6459418310709517e-01  -4.9635943028373328e-05 1.6157581146732756e-04 1.4359643395739630e-01  3.1018111304872891e-05 -3.3999641453924306e-04 1.7512902528251728e-01  -1.2912556507807302e-04 -1.0628094377568391e-04 1.7954819229780422e-01  -5.1391186330298991e-03 8.0309391045228044e-03 1.4825945645646255e-01  -1.2670879337164235e-02 1.2111968931350729e-03 1.3652546639631599e-01  -4.7072597892574720e-03 3.2849236325315180e-03 1.5368527312487032e-01  -4.7991904462464938e-03 3.0447345223571349e-04 1.6317989232192906e-01  -2.2595982839207192e-03 2.5106585408019143e-03 1.5574035247915052e-01  4.8825822545233034e-03 7.5091264165970993e-03 1.4259728031293248e-01  -7.9628404672675724e-03 7.8845526163888319e-03 1.3885175996909468e-01  -1.1972867302913715e-02 1.8811005219434386e-02 1.2347628078127712e-01  -5.6121076465413160e-04 1.3048931969743301e-02 1.3332486341836403e-01  -4.9569238681729149e-03 6.9479466250731859e-03 1.2560658366892713e-01  1.2168194970669556e-03 4.9546787839159544e-03 1.4717887917144448e-01  1.1762404603015441e-03 6.5366085638966362e-03 1.5075577766903353e-01  -7.5744520252915397e-04 5.4342573246669466e-03 1.1933547051507996e-01  -2.9303172901551676e-04 -7.6680889725098817e-05 1.7403996081649639e-01  2.4139136861709591e-05 3.9702721298012539e-04 1.6215905625536173e-01  -9.3397460349344311e-05 -6.6585187752311257e-05 1.5373206032607750e-01  4.1231013777310406e-04 -6.2965236350028247e-04 1.5687433178639931e-01  -4.5185024894877268e-04 8.6543522844579333e-04 1.7358260382625063e-01  -1.0736102468056940e-02 9.1139137858852037e-03 1.3616364472803566e-01  -8.1339381433660797e-03 3.5623665117224491e-03 1.2705902595551383e-01  -9.2622529613515994e-03 1.1126292497637406e-02 3.1672803250326356e-02  -7.9659723378422732e-03 7.4160227991747546e-03 3.3750483628400482e-02  5.2259558662311450e-04 -2.3544850965723319e-04 1.4569610828006793e-01  4.0797580041566076e-04 -4.8665799747682459e-04 1.4769925724183047e-01  -4.3686174326441267e-04 -5.7767962187700505e-05 1.6947744372786430e-01  -1.3139298090600985e-04 -1.9740754811468488e-04 1.3989511925825665e-01  -3.8426632684465454e-05 -1.0094717678911578e-03 1.4755535993029437e-01  1.1358663504423834e-03 -5.8358007051204260e-03 1.5800231497271566e-01  5.8930597995090137e-03 -7.5257135042557551e-03 1.2659617319128591e-01  1.7586541876754174e-03 -1.1754561032458023e-02 1.3895956317705388e-01  1.5316741798749880e-03 -5.4198291075377714e-03 1.3650166686067769e-01  1.1786410131288567e-02 -9.6541004239618419e-03 1.3467991893255229e-01  5.8080259580745735e-04 -2.6591988778112354e-03 1.6197445335814928e-01  4.6557588271785967e-03 -4.6890802870086078e-03 1.4951066838723720e-01  -2.6083692920405763e-03 -6.3869945778545125e-03 1.4601838202635686e-01  -1.5629363033954403e-03 -3.0621811615257552e-03 1.5738526490721344e-01  2.6228182553997943e-04 -1.7501811432323413e-04 1.4959480847509746e-01  5.5972810045835117e-04 1.6725824820489191e-04 8.3122462977831491e-02  -4.3732838559424540e-04 -3.4637479934387894e-04 1.3381996030958451e-01  2.2188514988303811e-03 -6.6426693669562461e-03 1.4431272219229713e-01  2.9999108316563711e-03 -1.4748480786005468e-03 1.6341274433877137e-01  -7.7175276656100869e-04 -2.0648121331731549e-03 1.7720075874860824e-01  4.3956584164516017e-03 1.0425927504771897e-03 1.6198302016917077e-01  -3.6344420839837835e-05 9.8895707371434791e-05 1.6680886832135430e-01  3.6769162144900561e-04 2.9804717490271846e-04 1.7975194764313726e-01  -1.3968349276322195e-04 -8.3306038629322199e-05 2.6543514837993561e-02  1.2420050830918160e-03 8.8843522803178912e-04 6.7118772893090761e-02  3.8317344195358236e-05 8.0190794539194792e-04 9.3624010442231023e-02  -6.9615693221425999e-05 1.4575626999250191e-04 7.4241837916515951e-02  2.6632432331005214e-04 -4.0231804654160253e-04 1.6439863129459348e-01  3.4950455965327798e-04 -3.4757525360195230e-04 1.4968374072090873e-01  -2.7710573291872580e-04 -1.3440983718638052e-04 2.6545574414290809e-02  -2.5638866799781860e-04 -9.3240861949520929e-06 2.6557934968499581e-02  8.2516007510355843e-05 -5.9078245234550218e-04 1.7611741869599223e-01  -9.2838088682691206e-04 -5.5309754666584693e-04 2.9791880435183778e-02  -2.2843708615054481e-03 -6.7890587223207080e-04 3.1543566548066553e-02  -8.4466760082696588e-04 -1.9768748000156991e-03 3.1332102991012800e-02  -2.2822818818202893e-03 -2.6440953468724101e-03 7.5492806135125115e-02  -5.0864487895719464e-05 -1.6278445951265215e-04 2.6491279091062438e-02  4.8597131076833980e-05 -1.5165479877182042e-04 2.6384591143237678e-02  -2.6724815773328087e-05 -1.8606621631372193e-04 2.6588182574100467e-02  -1.2518398276735656e-03 -3.7822268834244429e-06 8.7039909560319789e-02  -3.3845078082642781e-05 9.4007946117251936e-05 1.4821011972468018e-01  -9.6627011716397121e-05 -2.5465932400761210e-04 1.6613410778324836e-01  -4.9475894538869363e-04 -1.6203721115728401e-04 1.6422900759373926e-01  -6.8185911073740876e-05 -1.6044315940757473e-04 1.5113239693634392e-01  1.3109449783237301e-05 -1.5813706286426437e-04 1.2626074010575197e-01  9.2126146589965310e-06 -1.0796545964161744e-04 1.6495665643883450e-01  -2.6143266866703446e-05 -1.1758015717324483e-04 1.5720859985891289e-01  -3.8582959029373091e-04 3.1988782030267077e-04 1.2381979345207919e-01  1.9527836695770870e-04 7.5254684210310403e-04 8.8550708842846743e-02  -5.3812972237747003e-03 -1.1283227958580788e-02 1.2797516927675928e-01  1.2735516969056954e-03 -6.3425468599406882e-03 9.5986121916508682e-02  -7.9136187312793520e-03 -7.7137791668242701e-03 1.3955548644244636e-01  -3.1216930789925565e-03 -1.5868800013510013e-03 1.5211150207364826e-01  -2.0983144105196578e-03 -3.1550890887827436e-03 9.3067698976531013e-02  -3.2759181365410290e-03 -4.0248874537916765e-03 9.1240008254641819e-02  -4.3136937158162955e-03 -5.4924791162388560e-03 1.1853308332008623e-01  -2.5582186442745926e-03 -7.1297673203482483e-03 8.7531195695181460e-02  -8.8276943594213129e-04 -2.4128170677553511e-03 1.3586846784666670e-01  -9.4793964849384062e-04 -2.4900090578726937e-03 1.0291838911283874e-01  -5.5243727678229012e-03 -1.1711289950949383e-02 1.3724236533505824e-01  -4.6575077480888920e-03 -2.8655512925679634e-03 1.1962226582493926e-01  1.5494989648706642e-04 -6.6230360403898560e-05 1.6031270055123997e-01  1.3732486938520733e-04 -4.9114100379972615e-05 1.4488885225652812e-01  1.3956244323835867e-04 6.6898032484264606e-04 1.3997137574111115e-01  1.3851027085886123e-05 9.5523946739002976e-05 1.1795420481789917e-01  -2.0003802359513769e-03 -2.4861624314985154e-03 3.2477153430066331e-02  1.7137409266920845e-05 2.2954258406719967e-04 1.7673715920710573e-01  3.9702702259791768e-05 -3.4050956491818097e-06 1.4467553658098578e-01  9.9506892592697108e-05 -1.2000442921939803e-04 1.7458162951233133e-01  1.6084104928427843e-04 3.1843248978858594e-04 1.6375764492252118e-01  8.3365305091795020e-05 -1.6782914092357650e-05 1.3941793542040512e-01  3.0857668842004397e-04 1.5828077006820507e-03 2.8284649750269984e-02  1.3208175120553453e-03 8.5705929412808971e-03 9.0470069337336770e-02  -2.3286262015550256e-03 7.6141567162354828e-03 8.3824399039840458e-02  -2.7854951655772332e-03 3.8501878395233603e-03 8.8296275273659783e-02  -1.1287680917709854e-03 3.8208578423610928e-03 1.3673355724763883e-01  3.4087750017234328e-03 5.5646005352265890e-03 1.2954432210492287e-01  4.0064608652252048e-04 3.7642666934198012e-03 9.0011628591715256e-02  5.8861899600347184e-03 -6.1997292805102576e-03 1.2103866968805235e-01  5.5692585312445498e-03 3.8875354292176932e-04 1.4369195874099050e-01  3.7696221363448718e-03 6.4401822636852700e-04 1.0726244387796455e-01  2.8341802110765113e-03 -2.8710374222050538e-03 1.3240516512221703e-01  7.9079043494189108e-03 7.2699661267881712e-04 9.3073019168412166e-02  1.0865926346945312e-02 -2.0171532167102850e-03 1.3885900855770311e-01  9.4611924592332731e-03 -6.6956927721129609e-03 9.2440218484668490e-02  4.0179545702321304e-03 -3.1255286719601189e-03 7.9316363079084365e-02  2.6979999656653168e-03 -9.7545885666428618e-04 1.2303387082803370e-01  1.2165759783451411e-03 -8.4988679904106910e-04 1.4728145424582803e-01  -1.8423544420684306e-04 3.1958186731667848e-04 2.6369476570770024e-02  -2.5905108176788911e-04 2.7742298027984280e-04 2.6354055205687208e-02  -3.1488425076851211e-04 3.7018326797612677e-05 7.3716588536022795e-02  5.3367751857364104e-04 7.6873472152783041e-04 7.8653331264112128e-02  -5.9814569461496983e-04 2.9994650381254137e-05 1.4297115202909455e-01  1.3061613989910101e-03 6.7334355187318037e-04 1.5086696085825380e-01  3.5990225022103302e-04 -8.4137165382677228e-04 1.7727088110349162e-01  1.0383140431574048e-03 1.4414007212927901e-03 1.6784297167112472e-01  6.2885857479030535e-04 1.4944102468697419e-03 1.5440938641397539e-01  -1.9885356817973403e-04 4.0133111129825376e-04 2.6348373036676819e-02  -1.7055255541861686e-04 3.6637066376664926e-04 2.6443983538400832e-02  -5.9535160029513483e-05 3.1855613882318967e-03 1.3645163318235023e-01  -1.3082698561532749e-03 1.5512066215968301e-03 1.6317633751129521e-01  -2.5091266588237078e-04 2.8303944681803441e-04 2.7636210902137921e-02  5.3087516568700447e-04 2.4273813265646117e-04 2.8318804970192974e-02  1.1718529294252741e-04 4.1362460308683337e-04 2.6870693814664507e-02  1.7660536554797528e-03 -1.2887164499083450e-03 8.2920130910171433e-02  2.6362426340997298e-03 1.0204013368960525e-03 1.4207585315517685e-01  2.0919927362588043e-03 2.1414533953198695e-03 1.2976572767437569e-01  1.0819744488257533e-03 5.5526510663473294e-04 1.4162654215322296e-01  -8.0511163978752969e-05 9.1340651047292529e-04 9.5955419733542879e-02  1.0131093504259301e-03 2.9433651714511712e-04 1.2604623131595327e-01  -4.9443068787777809e-05 1.8169660169324321e-04 1.1773015930232217e-01  5.5697724171953540e-04 3.0068249415182095e-05 1.3480075620865775e-01  -8.3166766791412528e-04 -1.8012282651999685e-04 6.8575382277129504e-02  4.6779548018377552e-04 -4.1777215544276062e-04 7.8530925643806301e-02  -3.3417337213300524e-04 5.7273947474324163e-04 1.2169175188531579e-01  1.2778933775582857e-04 6.8227097581623469e-05 1.2025387228126717e-01  3.5885389403341421e-04 4.1969564085111142e-04 1.0294554210771392e-01  -2.6893107476862877e-04 -4.9492437339275269e-04 6.5412212588756832e-02  2.6432763150692647e-04 5.6105731691438200e-04 8.7056878095142662e-02  5.1828509450577921e-05 -2.8709106995538443e-04 1.4300716641091585e-01  -1.5314057976395669e-04 -6.3191366975335933e-04 1.4638731183661810e-01  -1.6808174292969237e-05 2.9071015460661377e-04 1.0484456637781385e-01  -2.7394625380508682e-04 4.1566359192644588e-04 1.5640115703846655e-01  -2.8780875182763744e-04 -2.5262477054711463e-04 1.3137918646226149e-01  1.0669633015273977e-04 4.6186742070692419e-04 1.2569968389227601e-01  -2.4786733190302587e-04 8.4340992466509052e-04 1.6240233889109054e-01  -2.4092429606518826e-04 -1.1187099491197126e-03 1.6519297069269889e-01  -3.5744773730358119e-05 -5.1277147264239964e-05 2.7082096829583072e-02  1.3565745435714749e-04 -2.4825667770366741e-04 2.6563779471052439e-02  -1.8364570475775494e-04 -1.0645701283473031e-04 2.6648001390771378e-02  -4.3009979939363557e-04 5.6109233372125691e-04 8.1015870171781856e-02  1.7063049342876634e-03 -4.8090178672405395e-04 3.4225109645465060e-02  2.6023593453585912e-04 -2.7128125266254286e-04 2.9971879663423098e-02  1.8431442620222272e-03 -2.1203910541852647e-04 3.1213417099023224e-02  6.1488536508818008e-04 -1.6405686292692099e-03 3.2119623914515907e-02  6.4806760635358149e-04 3.5960714912308477e-04 1.5793198057792723e-01  -7.9423001474718119e-03 -2.1298671548940578e-04 1.4425678259542127e-01  -8.0468023211952445e-03 -1.7139068651504429e-03 9.0182610828616713e-02  -1.2743982377854282e-02 -7.6280666166773040e-03 1.0741940646043004e-01  -7.2643806195366711e-03 6.3613243886839928e-04 1.3368527009642125e-01  1.4368741360686710e-03 -1.5730555121261651e-03 1.2450498381737009e-01  3.3493483131256333e-03 -3.4709085761020228e-03 1.2389343568517454e-01  -3.9743057360016051e-05 2.8431632691142789e-04 2.6810300282829193e-02  -5.0428322039715335e-05 2.8095151190410590e-04 2.7080555552392967e-02  -2.9700267039330054e-04 2.5016117554197374e-04 8.0936636807260251e-02  -2.4821899369961096e-04 2.5217925915883935e-04 9.1831426554590714e-02  9.2618034301346212e-04 -2.0055296104697050e-03 8.4962314640783423e-02  -2.3931986491048434e-04 -1.0061015235299444e-03 1.4468670345386178e-01  -3.1163943703388496e-03 -3.0877749382222162e-03 2.9692453386901636e-02  -9.8821602542994037e-04 -3.4885214314454480e-04 2.8652839563095982e-02  -6.1085123812346846e-04 -7.7953425210682730e-04 2.8906576764814250e-02  -9.4136983208642630e-05 -2.2155111208601154e-04 1.4104280126151003e-01  6.7788763211749925e-05 -6.1424487555462515e-05 1.3499495646554310e-01  -2.0923955122304136e-05 1.4609316977070116e-04 1.3548554392279677e-01  -9.9182335448447746e-05 1.3960969580694110e-04 1.0171695530459395e-01  -1.0221428686491397e-04 1.2401120364767104e-04 9.1604417907580366e-02  -2.6309815597540915e-04 -1.0673069522001146e-04 1.3354682744661445e-01  -4.6084219742594381e-05 -1.3706033060419305e-04 1.6497725633908111e-01  -1.2305034930871133e-04 8.2863547198094734e-05 1.3852894647740943e-01  -3.1825606826984686e-05 -5.1686197345949227e-05 1.0808434721225649e-01  -4.2214166831534596e-05 6.6008752502912042e-05 1.6029659062280938e-01  4.0959637829134255e-06 1.1166510623145501e-04 1.1011576121599975e-01  2.3267150246033630e-04 -9.7470075275277833e-05 2.6523042171222946e-02  2.3806610415017955e-04 -4.9370392406280601e-06 2.6502841242294736e-02  -1.8999440030920570e-04 1.0607420498978117e-03 8.9227174315641325e-02  -3.0025619997556068e-04 1.0788073914402251e-03 6.6297634955811743e-02  -1.5006905729357263e-04 -6.3358647504992040e-06 1.5320805648836053e-01  2.4650122091939348e-05 -4.5188394351173280e-05 1.0506195724753324e-01  -2.6167694385874347e-05 -1.0108592160561475e-04 1.6389587132185926e-01  2.3440208945926916e-04 -2.4684265633524249e-04 2.6516809945834312e-02  2.1083115304897708e-04 -1.8810294881793353e-04 2.6562569614667245e-02  -1.6076404415468464e-04 -2.1623739222773129e-04 1.1947511511962959e-01  3.9842617191068443e-04 1.3944865150729735e-04 9.3667933604556775e-02  1.2651759443022361e-04 -1.9001080582499539e-05 1.0978297395270602e-01  3.9575388002213312e-04 4.0299779938135477e-04 1.0307156529290785e-01  2.6035198539703776e-04 4.2427534381331668e-04 1.6166454497939298e-01  8.0632657490922018e-06 3.7682874346427877e-05 2.7585721333778027e-02  9.4559813384851369e-06 6.4043442920655796e-05 2.7589685196658980e-02  3.9834685255412139e-05 1.3356593350846583e-04 2.7370785876761825e-02  1.0239853580682524e-05 -1.0704823311682192e-04 9.1700137438964005e-02  2.4624162902308718e-05 1.0234544498456185e-04 1.6619847803728985e-01  6.4998911662751262e-05 -8.8418420036558049e-06 1.6778439893906810e-01  3.8509157162322558e-05 -5.2555663252627836e-04 1.3668584610150425e-01  -2.2309753206540010e-04 -8.2226108063089410e-05 1.4997334222763073e-01  -3.1862442664433286e-04 -1.5536991480301772e-04 1.5596082091811167e-01  -3.3543494651861475e-04 1.1289768245157954e-04 1.4645563907994408e-01  1.8796950072473263e-04 3.6761784177470424e-04 2.6450761122781462e-02  1.3270019183583991e-04 4.0919825266485518e-04 2.6397625942054713e-02  -4.6836270852358100e-04 -3.2677109423132831e-04 6.7619220396965454e-02  2.3633630650207014e-04 -4.9514274214146087e-04 8.6264223282155494e-02  5.5980942994154160e-05 -2.4242392661452127e-04 1.3276487091998321e-01  2.1093045846708731e-04 -4.0829319564511312e-04 1.4152854709723323e-01  -1.4090590970025005e-03 5.6386217181084966e-04 1.6389926839371799e-01  -8.3612953387348277e-04 1.2278829903264936e-03 1.4719219089946323e-01  -4.0534585900440095e-03 3.1434984989168425e-03 1.2696581337847210e-01  -4.4679624920942393e-03 2.9203274370126950e-03 1.2921641860037283e-01  -1.0339490964423225e-02 9.9768235174568527e-03 1.2703127927172639e-01  -3.1878770984815509e-05 -1.5634112325016350e-05 1.7246813972177860e-01  6.6853460775071288e-05 -3.2294929415780936e-05 1.6148599374713624e-01  1.2411394196275611e-04 -1.1466752581914714e-04 1.4838680241076277e-01  -1.5362157353821242e-04 -7.6175842233422756e-05 1.7657357713287924e-01  2.6289760802630824e-05 -2.3396728047332183e-04 1.5392002933622206e-01  1.6612047035320350e-04 -1.6765880952302563e-04 1.5626448167143908e-01  8.1907517281046963e-05 -6.6387641340601503e-05 1.7038108045289674e-01  -7.3558184234145913e-05 -7.9836145164994892e-06 1.4558966889156444e-01  -6.0035578845871168e-05 8.6359955214238766e-06 1.4747598058955672e-01  3.4930040330556021e-04 5.7424721716059898e-05 8.4692501164486012e-02  1.5340525327183887e-04 -7.8550265988312537e-05 1.1312510530450880e-01  4.4849785308604688e-05 -8.1631980723380034e-05 1.1731474747035613e-01  1.2852197514956197e-04 4.1728691269946400e-05 7.2486670587929652e-02  -1.4829370543517449e-05 -1.6510168336162720e-04 8.9622678396474004e-02  1.4050969724947568e-05 -3.2299473438925661e-04 1.1281000370627897e-01  -1.0551697016283915e-04 1.9961536315428436e-04 8.9866042735445531e-02  -8.6633606784712166e-05 -2.5279505278035078e-04 8.4510184446937558e-02  6.1428943145165780e-03 -6.4291532030180953e-03 7.9079807600216753e-02  6.2711004850514122e-03 -4.9659801899534679e-03 8.8156575334046680e-02  2.3438123804079484e-03 -2.8285154384536729e-03 7.1226750022650123e-02  1.0872513790097979e-02 -1.2049583740176374e-02 1.2184990390821200e-01  -1.5594803433670546e-02 -7.9190743335480762e-03 1.2725478127754361e-01  -1.0631877206705316e-02 -1.6976752010162889e-02 1.2574306008297398e-01  -5.5801622188749204e-04 4.7162929750189232e-05 2.8865095171775615e-02  -1.7576312837776003e-03 4.3848428427104247e-04 2.9293662884275394e-02  -5.1139483343766630e-04 -4.1416930898077865e-05 2.7616001805218750e-02  -2.8252643591518203e-03 3.0166287588994276e-03 7.9258922068139059e-02  2.5496124271396879e-03 -1.4839978727063791e-02 1.2520604693152812e-01  6.8111877395851499e-04 -2.3347413027890611e-02 1.1532000344876214e-01  2.5801613742120795e-04 -1.1497679561714168e-02 9.7355834605308084e-02  -6.6650192681104942e-03 -6.2524216208078602e-03 8.0721445213129212e-02  8.7204160745006937e-03 5.1717661942144427e-03 1.3469853073113836e-01  1.1624023849800522e-02 9.4911330195914280e-03 1.2516767060326772e-01  1.3521169745718537e-02 7.4023823369020279e-03 1.0676997425996591e-01  5.2964637660641196e-03 3.8370467959906291e-03 1.0487049146377471e-01  1.6572220139051881e-05 3.7765251412154484e-05 2.7624962370216322e-02  -4.3461782325365892e-06 4.0128731708744795e-05 2.7628959281791883e-02  2.8185751986803968e-05 -1.0172308789761855e-04 1.0973137776698771e-01  -1.5472218880071894e-04 8.0974301445776303e-04 3.0156976866455788e-02  -1.9941491435761577e-03 1.6025342304401215e-03 3.0752647390326723e-02  -1.6491407221097627e-03 2.2521584790808594e-03 7.5835920470447335e-02  -8.2762324378368219e-05 2.4653639822207782e-04 1.6958632370043397e-0