<?xml version="1.0"?>
<VTKFile type="UnstructuredGrid"  version="0.1"  >
<UnstructuredGrid>
<Piece  NumberOfPoints="857" NumberOfCells="3763">
<Points>
<DataArray  type="Float64"  NumberOfComponents="3"  format="ascii">-0.0182597916573 0.126128911972 -0.119588643312  -0.0077641364187 0.0512270443141 -0.07050477713349999  -0.0237180162221 0.16240182519 -0.053058128804  -0.107877351344 0.105669431388 -0.0502408407629  -0.0444478429854 0.116080775857 -0.00235075876117  0.0393674038351 0.112876079977 -0.0491501875222  0.0248903874308 0.0489483103156 0.000152088920004  0.0314915925264 0.114928804338 0.0218031276017  -0.0657326281071 0.0685198307037 0.0497140102088  -0.0355357266963 0.164656624198 0.0508319064975  -0.010538729839 -0.0422629192472 -0.208358153701  -0.0239527057856 0.0135364839807 -0.242119863629  -0.0194642152637 -0.0775559768081 -0.263431429863  -0.08492307364939999 -0.0108216870576 -0.280446648598  -0.08293507993220001 -0.0361198186874 -0.159778758883  -0.0240796487778 -0.0824203491211 -0.148982465267  0.0430508553982 -0.121076337993 -0.234084427357  0.0307756774127 0.0324950888753 -0.198437720537  0.00352357281372 -0.00433266581967 -0.144715368748  -0.0456651262939 0.08372022956609999 0.342343091965  -0.116630032659 0.0117083769292 0.386158525944  -0.08223126828669999 0.0577075146139 0.289406776428  -0.0511222109199 0.00205342215486 0.300772219896  -0.0125984866172 0.0267426930368 0.351842552423  0.0303636882454 0.0561947338283 0.391145974398  -0.0524924062192 0.0543583929539 0.40361738205  -0.07944945245979999 0.130002260208 0.441037595272  -0.000730989675503 0.119443200529 0.385622620583  -0.078488714993 0.137875169516 0.332541137934  0.0142801422626 0.110509291291 0.27100610733  0.0224165506661 0.08303219079970001 0.331783413887  -0.0170432701707 0.161798536777 0.30022162199  0.000811119796708 -0.0515509881079 -0.08419398218390001  0.0888616070151 -0.015075173229 -0.0776951387525  -0.0989535748959 -0.0518730916083 -0.08125374466180001  -0.0433920919895 -0.09785594791170001 0.0106235472485  -0.0488061010838 0.0295096840709 -0.0131453983486  -0.25 0.25 0.5  -0.166666666667 0.25 0.5  -0.25 0.195066730511 0.445658150344  -0.19506166517 0.25 0.445542865294  -0.0213422998786 -0.126349791884 -0.045622177422  -0.117952652276 0.0158270020038 -0.16616243124  -0.0531469397247 0.0490713231266 -0.13630309701  0.0358348339796 -0.131537660956 -0.134171053767  0.0583617314696 -0.115307979286 -0.0462360456586  0.010585160926 -0.0606908276677 0.314250290394  0.078067921102 -0.133790805936 0.331458956003  0.0206208750606 -0.104583717883 0.36723652482  0.0300164371729 -0.13569638133 0.270959883928  0.0797956883907 -0.07311873137949999 0.388136893511  0.0291880238801 -0.0850581228733 0.220644980669  0.0788302049041 -0.07555303722620001 0.284453928471  -0.0465739220381 -0.108428947628 0.305151432753  -0.056692365557 -0.0812899768353 0.234353885055  0.10282895714 0.0630551427603 -0.0452189296484  0.178613707423 0.153893724084 -0.0703043565154  0.0750898644328 0.130835875869 -0.116260357201  0.0179002508521 -0.0400723591447 0.396018892527  0.07961820065980001 -0.020668130368 0.232235535979  -0.00726175494492 -0.022667773068 0.242156982422  0.0524490773678 0.0171752162278 0.310696065426  0.0103002395481 0.0813155695796 0.107229083776  0.00225681974553 -0.008687185123560001 0.0457225777209  0.177950121638 0.25 0.0405701099774  0.151375159621 0.202163234353 -0.00268407491967  0.13042794168 0.172564610839 0.0599601529539  0.184557154775 0.16295710206 -0.00737970136106  0.0827306732535 0.011830884032 0.0299163535237  0.106673434377 0.0676268041134 0.0663062110543  0.25 0.25 0  0.25 0.177947182503 0.0435581305687  0.0251978598535 -0.0201241951436 -0.0233656335622  -0.25 -0.25 0.25  -0.175495340629 -0.25 0.295351832328  -0.25 -0.175776260788 0.294629825204  -0.164853364229 -0.189889326692 0.246240898967  0.111295968676 0.25 -0.00354384794953  0.0417815256417 0.25 0.0264120515999  0.0577150444892 0.25 -0.0418173710713  0.035034801811 0.196921139956 -0.0497792549431  -0.115254960954 0.0352221727371 -0.0357825122774  0.0360979661345 0.0743419006467 -0.130612716079  0.08110298216340001 0.0143552683294 -0.135737240314  0.0281950440258 0.110801942647 -0.38559025526  -0.000352636008756 0.154027625918 -0.45018479228  0.0220217909664 0.07910815626379999 -0.445265561342  -0.041934799403 0.09297795593740001 -0.440330862999  -0.115356497467 0.128115877509 0.0303980205208  -0.08144567906859999 0.192924261093 -0.0396481454372  -0.0503155887127 -0.140062868595 0.370642662048  0.0181560348719 -0.191118896008 0.319997102022  -0.09442232549189999 -0.0766885429621 0.347179293633  -0.10306725651 -0.0245223585516 0.261891931295  -0.0371639840305 -0.192689821124 0.258922994137  -0.08778057992460001 -0.193450272083 0.293951839209  -0.116932563484 -0.137108251452 0.278956532478  -0.0434515699744 -0.19969072938 0.340430229902  -0.016621209681 -0.143479332328 0.208528921008  -0.0799133181572 -0.177766740322 0.206858798862  -0.0340202823281 -0.07231882214550001 0.405357718468  -0.153045728803 -0.0703692808747 0.28540495038  -0.0647673308849 -0.069349065423 -0.297796696424  -0.0468406006694 -0.118580199778 -0.331259429455  -0.0636249184608 -0.122360698879 -0.235275790095  -0.137311711907 -0.115820750594 -0.279358655214  -0.25 -0.25 0.333333333333  -0.00222280388698 -0.0275516584516 -0.327156513929  0.0233143884689 -0.124395690858 -0.330935031176  -0.00544846989214 -0.0444226972759 -0.392852008343  -0.07202984392639999 -0.0450558848679 -0.379192590714  -0.128861442208 -0.0482712239027 -0.325591087341  -0.0319190612757 0.25 0.27473160228  0.0259018652141 0.196524605155 0.343851953745  -0.0424101948738 0.196461260319 0.324036180973  -0.08801463991400001 0.193724930286 0.280150324106  -0.051391992718 0.129726842046 0.244459152222  0.0793330296874 0.131078347564 0.273738384247  0.0304427426308 0.197590425611 0.258007407188  0.139736711979 -0.103549621999 0.308288753033  0.117407329381 -0.00031748006586 0.284001767635  0.17845864594 0.0137020656839 0.2717012465  0.133446916938 -0.07468281686309999 0.252671837807  0.193237304688 0.0103836003691 0.32706490159  0.108656100929 -0.016409387812 0.370573759079  0.195593327284 -0.0705924406648 0.374003827572  0.204297035933 -0.0882691517472 0.283604085445  0.15987212956 -0.0232784096152 0.211559042335  0.103109702468 -0.0715631917119 0.185957938433  0.25 -0.177950121638 0.0405701099774  0.25 -0.111295968676 -0.00354384794953  0.168315500021 -0.181550845504 -0.0129796266556  0.203061833978 -0.0839376300573 0.0201103240252  -0.123973377049 0.0421161539853 0.0831994190812  0.10652089864 0.041568480432 0.133020982146  -0.00508088478819 0.00464248098433 0.118765294552  0.0384838804603 0.0542355030775 0.219570666552  0.0556482039392 0.09942726045850001 0.165778696537  0.25 -0.25 0  0.25 -0.17904445884 -0.0421267671166  0.0085972994566 0.139411628246 0.206887423992  -0.0427397117019 0.0734880268574 0.199836358428  0.25 -0.25 0.166666666667  0.177338154858 -0.25 0.209433902167  0.178222204231 -0.25 0.126578397361  0.180748909712 -0.154124230146 0.180074676871  0.118582360446 0.0498475395143 0.233844980597  0.113276541233 0.115120351315 0.208414897323  0.068451166153 0.123325429857 0.09300038218499999  0.08695217221980001 0.18308262527 0.11987875402  0.1366494596 0.0978636816144 0.125807240605  0.0170362386853 0.165571182966 0.116205818951  -0.075325883925 -0.13042730093 -0.120773427188  -0.191016584635 -0.1764793396 -0.0778442546725  -0.102759346366 -0.20253264904 -0.07015967369080001  -0.126150563359 -0.115044787526 -0.0573479756713  -0.138729035854 -0.104583211243 -0.134180948138  -0.147993162274 -0.138949289918 -0.203295826912  -0.180331096053 -0.192031860352 -0.160557568073  -0.194399222732 -0.0846866071224 -0.148938387632  -0.11259970814 -0.078034222126 -0.193649172783  0.0326924659312 -0.122268341482 0.0296003930271  0.0215157996863 -0.180560961366 -0.0757267251611  0.0956164896488 -0.0493310950696 -0.0164182558656  0.112129375339 -0.112067811191 -0.105549775064  0.127802968025 -0.106147237122 -0.0110959038138  -0.0854129120708 -0.015297700651 0.056893799454  -0.0204317308962 -0.0795602425933 0.117458000779  -0.178222204231 0.25 0.126578397361  -0.177947182503 0.25 0.0435581305687  -0.107976816083 0.25 0.0905854563709  -0.157577678561 0.178241759539 0.0969507619739  0.25 -0.25 0.333333333333  0.25 -0.25 0.25  0.175776260788 -0.25 0.294629825204  0.25 -0.175495340629 0.295351832328  0.0932372882962 -0.0430554822087 0.0724518448114  -0.044769000262 -0.00661279587075 0.403999477625  -0.194478780031 -0.0247275307775 0.332954645157  -0.173761367798 -0.0806607827544 0.396263659  -0.137637495995 0.00523930834606 0.315887242556  0.0864742994308 -0.139340251684 0.176064118743  0.105438224971 -0.136641919613 0.253711819649  0.0308670303835 -0.25 -0.136809572586  0.0367561832589 -0.25 -0.219583441074  0.0925811678171 -0.20055809617 -0.19996842742  0.0127155454829 -0.193433105946 -0.225977659225  0.0415658205748 -0.200880005956 0.196522325277  0.0373581312597 -0.119548290968 0.120048768818  -0.0954102815882 -0.25 0.346414074494  -0.101368582479 -0.25 0.251933327382  -0.0374909392175 -0.25 0.286229296012  0.0852289572358 0.109103307128 -0.27055695653  0.07707493752239999 0.127253636718 -0.199824258685  0.128097131848 0.07648140937090001 -0.209757223725  0.154867321253 0.13628205657 -0.212952241302  0.08678253740069999 0.189277544618 -0.274375885725  0.127699971199 0.0803090333939 -0.326344817877  0.0577741526067 0.0601542405784 -0.31936660409  0.0525139421225 0.129102528095 -0.326874881983  0.0251371748745 0.175572559237 -0.261228203773  0.0199144631624 0.0927290171385 -0.265960127115  -0.148952946067 -0.121583275497 -0.374568909407  -0.25 0.177950121638 0.0405701099774  -0.25 0.111295968676 -0.00354384794953  -0.175531774759 0.135734900832 0.0562076568604  -0.178730383515 0.191659659147 -0.00562386959791  -0.0244714934379 -0.108516678214 -0.387223660946  -0.09279609471560001 -0.170035287738 -0.445968538523  -0.0281062982976 -0.0
[...]
<PointData  Vectors="f_104"> 
<DataArray  type="Float64"  Name="f_104"  NumberOfComponents="3" format="ascii">-1.2420381087731162e-04 -1.4696653881598855e-03 1.7474732147191269e-01  -1.0911618324748015e-03 -8.1002995710097137e-04 2.2499230626143010e-01  1.7932716771017860e-04 -1.1552557241562970e-03 1.3560400105969253e-01  -2.3043144656227486e-04 8.0090708375174274e-04 1.5560730177171750e-01  1.7934118752500425e-03 2.1259452063987630e-04 1.7554525126193563e-01  1.8462700644965295e-03 2.7776501751097999e-03 1.8008436051848811e-01  -7.4638949285333244e-04 6.8806799914999830e-04 2.2300031853472058e-01  1.5480609623153914e-03 7.3815431809244234e-04 1.8140512268140022e-01  8.7374884749430914e-04 7.3488566350512281e-04 1.9898403671706996e-01  -4.1662158617156246e-04 -1.6169637417881434e-03 1.2837488045012541e-01  1.6784916576667848e-03 -7.2042764275905054e-05 2.2908087291110388e-01  -5.7847723197877672e-05 -2.1727188889132578e-04 2.3410999699188806e-01  -2.3939533029920988e-04 -4.6744450092165487e-04 2.1435360800317307e-01  -2.2368832245828527e-04 3.2862733757807557e-05 2.1313789192493776e-01  -7.7350301832519643e-04 -1.3980104618586118e-03 2.0607083893789760e-01  3.7735622027134779e-04 9.2218847729827230e-04 2.0693847358586956e-01  6.6964453140252024e-05 -6.2418984209103355e-04 1.8200755455120721e-01  -2.4123986355877193e-04 1.5005840042114336e-03 2.2831760131390760e-01  4.5835845887667203e-04 6.6063965139834680e-04 2.3394961549970869e-01  -7.7336461702925841e-03 1.5304536856980121e-02 1.7056054282166147e-01  -2.1820440910687966e-02 2.4337440945270444e-03 1.4141165931141617e-01  -8.4586269809525608e-03 7.8383963903791692e-03 1.7722571672440349e-01  -3.0020494618117400e-03 1.9318420258067324e-03 1.9167795145933478e-01  1.5741785249224428e-03 6.4042256076043092e-03 1.7806615779975990e-01  1.0141131410210509e-02 1.4875255208972009e-02 1.5916395336813227e-01  -1.5304500051812111e-02 1.6162367114234702e-02 1.4890111937576736e-01  -1.8698915531702481e-02 2.2998670433114675e-02 1.2066935765350055e-01  8.5450246565412695e-04 2.5524977887549677e-02 1.4883564393097906e-01  -1.4814592159219937e-02 1.9334612575843634e-02 1.4709654204795050e-01  -4.8145365958681763e-04 8.8065157684267866e-03 1.8229253824925681e-01  7.6805972138233166e-03 1.5148288799367251e-02 1.7915378285871550e-01  -2.4969235398406924e-03 1.3500963689082277e-02 1.3067619265707248e-01  9.2675769007942671e-04 4.1306691227466842e-04 2.2488788302882343e-01  7.0680546508710527e-05 -1.4591460577673707e-03 2.0700929435111312e-01  -9.0151936519724792e-05 1.2558399195862561e-04 1.9249712882981374e-01  -2.9423821178039028e-03 1.5569015265979739e-03 1.9020150774825773e-01  1.6480684995736072e-03 -2.9483108235539672e-03 2.2057135920580140e-01  -1.2966820029305201e-02 6.7358032584107601e-03 1.1898138350322454e-01  -8.7972189433727834e-03 -5.1698077210308568e-04 1.0867942668713475e-01  -9.4420482424222157e-03 7.6547420402232674e-03 1.1080654498815165e-02  -9.1147924863072220e-03 4.4166141162095057e-03 9.9691914282101692e-03  -2.2491433347810916e-03 9.6689728205523592e-04 1.7050124379429399e-01  -1.3314639495185243e-03 1.7421324822355420e-03 1.8848306296688722e-01  1.4394797832130211e-03 7.1619948298579528e-04 2.1451318483677617e-01  4.6050794757489287e-04 1.0316613996415168e-03 1.6862831344557463e-01  2.0870016507028164e-04 3.6839919243840530e-03 1.6956196830678361e-01  -1.0996080990528154e-03 -4.8050480571530897e-03 1.9062118936364472e-01  1.0639850354002880e-02 -1.7624159386984160e-02 1.5487359839079998e-01  7.6393972875141315e-03 -2.0682392503419810e-02 1.6138841812099117e-01  1.8054229230375228e-03 -4.4880603021363293e-03 1.5104294663960591e-01  1.5047610419298335e-02 -1.7162157825296277e-02 1.5786626345130197e-01  1.5718720639411759e-03 -1.7674809171987537e-03 1.8752903589093822e-01  5.8335727237926044e-03 -4.1110573009581165e-03 1.7903654708515457e-01  -7.2131751977141147e-03 -1.0232714601045727e-02 1.6365237918822476e-01  -4.9712002028852315e-03 -1.8758325833389492e-03 1.8663378036114273e-01  -3.4055817733020139e-04 1.1984509577232210e-03 1.8697260549503283e-01  -1.5844270599889134e-03 -4.0655557371050473e-04 7.2007282190047039e-02  1.7708779952290336e-03 1.9278837628192598e-03 1.5818377898763941e-01  8.1511319693145946e-03 -6.2799230253183323e-03 1.5066990805069788e-01  2.6040451557043402e-03 3.3813074613004367e-03 1.9081260225399635e-01  1.1945235345232305e-04 4.0990352448710974e-03 1.9594973661822304e-01  5.6443746233776756e-03 6.4574539595703721e-03 1.8572050908934010e-01  3.0160341555650723e-04 4.3138198091804587e-03 2.0049136495241843e-01  -1.1769649862203423e-03 -6.5026719758694881e-04 2.3017719089022790e-01  9.3621601180578836e-04 -4.4805946463145739e-04 -1.7819606347292176e-02  -3.5018190129143404e-03 -2.5445368143548102e-03 5.3201053179570516e-02  1.8868262202572476e-03 -1.3908017509845067e-03 9.4873244039686888e-02  1.0599370159406587e-03 -7.6069380114906669e-04 6.9475241399296728e-02  -1.7087417468051287e-04 2.0912603814056906e-03 2.0897187616802201e-01  1.1757170488708108e-03 4.8294918362657840e-03 1.7135809139815825e-01  8.1250361108354120e-04 -4.7046432454640448e-04 -1.8363556277026034e-02  9.6047653678392833e-04 -6.5288653501696496e-04 -1.7736336838249735e-02  7.5423590676570494e-05 1.9609372618928913e-03 2.3514012353806876e-01  -2.4182123087475063e-04 -3.2315357203726550e-03 -9.0020614153809523e-03  -8.7748228897650273e-04 -2.8073847123209136e-03 -3.9900757027366745e-03  3.9409506791691570e-04 -4.4299345469564653e-03 -5.6205537179478456e-03  -5.0342597969868161e-03 -3.3510011667176915e-03 6.4441852592295137e-02  5.1297795872766731e-04 -3.1165048290314197e-04 -1.8937922450448515e-02  3.0627141321963353e-04 -4.9285691674228523e-04 -1.8376309486987860e-02  3.5366750598689350e-04 -2.9752626266466492e-04 -1.9413514186513985e-02  4.4766877437578522e-03 -6.3589209234484270e-04 9.1345418806279222e-02  -9.6955907446292787e-05 -2.5574819713902624e-05 1.8599756414725463e-01  3.2181277465448069e-04 1.0157568176004633e-03 2.0849081593435381e-01  1.9523032624237282e-03 3.0771115509963556e-04 2.1407637873898663e-01  7.1148295829645683e-05 8.2354296370174950e-04 1.9108331216169369e-01  -2.4284951787600264e-04 1.2653875010389586e-03 1.4847016860803761e-01  -4.5001797476146419e-06 1.9007405022031991e-03 2.1188691882600597e-01  -3.8046950206901742e-04 1.5428439453825183e-03 2.0079175547495415e-01  1.1126193375534010e-04 5.6654454877351869e-04 1.3913973947415642e-01  -1.4452480640761395e-03 -2.5108738491180335e-03 8.5301388789726373e-02  -1.1788936594808707e-02 -2.3663960470603897e-02 1.3031347750449951e-01  5.2535864183381913e-04 -7.3547987019769775e-03 9.4969984525475989e-02  -1.7561452804415189e-02 -1.1436127255180121e-02 1.6454682750168881e-01  -1.1380225961200249e-02 9.2140405752827762e-04 1.8076800796864878e-01  7.0917646151786684e-04 -5.7330758631791634e-03 9.4938714551648457e-02  -4.9704444444066409e-03 -7.2205602093888318e-03 8.0250390734333391e-02  -8.6580621048135582e-03 -4.2809729874409182e-03 1.3657900446649029e-01  -9.3514466354685313e-03 -9.3651496840457902e-03 8.6984185660088822e-02  -3.6545332390574160e-04 -4.0032169767341332e-03 1.4409566707437049e-01  -4.8214360108313360e-03 -2.3954744632838623e-04 1.0343780481408153e-01  -7.4095415506733658e-03 -1.5129398698472081e-02 1.4603829020992468e-01  -9.4976637958068162e-03 -7.0127165116081235e-03 1.4047858524540108e-01  -4.4195396149975002e-04 2.9857728648861035e-04 2.0760498619757992e-01  -3.5940120292304010e-04 1.5862538243442763e-04 1.8099831162244409e-01  -1.5986010797296784e-04 -2.5077537357669926e-03 1.7413504754802803e-01  3.8721291582044931e-05 -4.0124056044235255e-04 1.3529947433017867e-01  7.6519179645134240e-04 -3.5179264382440515e-03 -7.3995260949016905e-04  -7.8174418772333068e-05 -8.1018449383971959e-04 2.3609462423858898e-01  -3.7079971892263095e-04 4.2316176548870459e-05 1.7894086893837544e-01  -3.8932545692393753e-04 1.1176161129930037e-03 2.3005217403244782e-01  -3.7097174806931341e-04 -4.4223556956737517e-04 2.1358002197836648e-01  -3.1590479852859735e-04 5.0643886621665765e-04 1.7081608319502795e-01  -1.9416996416236383e-04 -3.0195682611980606e-04 -9.3313105566201412e-03  7.1363451272765943e-03 6.8352880736547187e-03 9.2190436486825483e-02  -5.1192039621972170e-03 6.9656879007162090e-03 1.1158189021587195e-01  -6.0696076899982741e-03 3.6033501838249929e-03 9.1918283092765452e-02  -7.2147880850720715e-03 5.7839416485500122e-03 1.6406936301066177e-01  8.4745604925075355e-03 4.6881038453805996e-03 1.5835808209441335e-01  4.4168914460824609e-03 2.1256072252195200e-03 8.4295856676984068e-02  1.0281575381913887e-02 -5.2196730285032789e-03 1.3668547314090274e-01  1.0411221801135762e-02 -2.7893240192437786e-03 1.7822841375032247e-01  6.3454853430682280e-03 1.6530861369961360e-03 1.1262446797738417e-01  7.2641177789271134e-03 -3.7181668421080128e-03 1.4965242064307893e-01  7.4046677390088439e-03 -1.5309752449253479e-04 9.7658169423496810e-02  2.1922679588546240e-02 -7.9288856549578448e-04 1.5512977915141404e-01  1.1343844971279275e-02 -5.1928914165688218e-03 8.6181129347069327e-02  2.6796627680516646e-03 -5.8261417858529495e-03 7.5022909397840384e-02  2.0231133728207725e-03 1.5690658020505799e-03 1.3039847632010634e-01  5.1179935151303832e-03 -4.1628950153215607e-03 1.7824871263736472e-01  9.9921993055326203e-04 -2.3194530728455659e-03 -1.6187440780653942e-02  9.3174336572028225e-04 -1.9329361081450833e-03 -1.7365453721877314e-02  2.0416952554875392e-03 -1.3684598578947540e-03 7.0370293622855518e-02  -3.7772945896661123e-04 -4.2796698587758740e-03 7.1673857900156637e-02  -8.5630797217807204e-04 1.2189131274292619e-03 1.7533743385210276e-01  8.1462853477622533e-04 3.5333869964041209e-04 1.8991240695489894e-01  -1.9238045337960264e-03 3.6149047928457556e-03 2.3302165687869356e-01  3.6222751984376859e-03 4.5425418446053854e-03 2.0394251858304099e-01  1.9988355678517088e-03 3.1146181589380819e-03 1.7800233297107182e-01  1.0813054989372245e-03 -2.2137347615303051e-03 -1.7004166067962220e-02  7.2458495032326248e-04 -1.9548723273421402e-03 -1.7827078755427359e-02  1.6919298956726370e-03 1.5291805802239912e-03 1.5730166286418756e-01  -8.7658534430197933e-04 4.4932833142513305e-03 1.9834405615773310e-01  1.4879310210995503e-03 -3.2496994431595989e-03 -1.2141495997397583e-02  2.2716555281982274e-03 -3.4493926994960868e-03 -1.0299479836359829e-02  1.6713228701200869e-03 -2.7813101129195998e-03 -1.3677877818954753e-02  1.7009448684618715e-04 -1.9218867681955797e-03 7.4067031854878368e-02  7.4935687033103656e-03 5.0912698162262999e-03 1.7617120691364627e-01  3.7738811900205234e-03 4.0430298240012900e-03 1.4946920223806995e-01  -1.1774491432316285e-03 3.0138760627662067e-03 1.5843742713173756e-01  3.7497292289857447e-03 1.3245591362196673e-04 9.9889429758860115e-02  1.2921470060485920e-03 3.1550433400812012e-03 1.3891644908941300e-01  1.3492323273807398e-03 3.0445505559499528e-03 1.3164304147837677e-01  -2.1902235386933745e-03 2.1685229515378817e-04 1.5721725844695819e-01  3.0201806754092237e-03 6.4020585167077430e-04 4.4684272960696089e-02  -2.3053639268676772e-03 1.6721841009205095e-03 6.0179145268960003e-02  1.2674698129975293e-03 -3.2594051488977847e-03 1.5184164085130672e-01  -6.0273714100376151e-04 -6.1395367534652142e-04 1.4268907241243631e-01  -1.5610770076593637e-03 -1.5065929315711117e-03 1.1353773866271927e-01  1.5953596603543794e-03 1.4821339110370102e-03 4.5673645438674464e-02  -6.6836460598424495e-04 -2.1559527331477145e-03 8.1388305349041901e-02  -4.1516736954276979e-04 1.3561646158972416e-03 1.6910325922086966e-01  4.4933050607591393e-04 1.4446665694657988e-03 1.7381073525809931e-01  4.2014079821159990e-04 -1.2829676433558632e-03 1.1245016719319613e-01  1.7249244420645970e-03 -2.0672757110361535e-03 1.9277154654253137e-01  9.3863105097852012e-04 7.9371269664444213e-04 1.5322728894810259e-01  3.5715656809833684e-04 -1.7911407444708306e-03 1.5024521487271050e-01  -8.1002597700728705e-04 -3.5192320113462969e-03 2.1084850000625838e-01  -3.3187040041158725e-04 3.0380017256439280e-04 2.0466646654515402e-01  -8.9155762729576748e-04 -4.0021923008794495e-04 -1.5585599307888253e-02  -7.0389196533518364e-04 -6.2876012538336159e-05 -1.7679990114582132e-02  -6.7833434560322296e-04 -4.6920089870476080e-04 -1.6854954136914069e-02  -1.4278056636875449e-03 1.7166363984047462e-04 7.6461909755395296e-02  4.1664957950528353e-03 -5.9516890821997076e-03 2.0964575643242127e-03  2.3157254984430753e-03 -4.6477906179929127e-03 -6.8940454796180420e-03  3.9281683737857637e-03 -4.5715499871612558e-03 -3.6560518197348069e-03  2.2210305511632411e-03 -6.7236401546449959e-03 -2.0314372657738696e-03  3.5600280795952970e-04 -1.7322482570287991e-03 1.9619613262911717e-01  -8.7366240121412100e-03 -1.7140902659752081e-03 1.4163052413960153e-01  -8.2193734822972146e-03 -2.6115285917659847e-04 9.9798401795281488e-02  -2.0416986625253788e-02 -1.9407842713146543e-02 1.1364728986933324e-01  -1.5080141930616268e-02 -9.1072013367007930e-04 1.5076558334604395e-01  8.6796391875219110e-04 -2.9448933460845370e-03 1.5232896884720226e-01  4.3994943567628262e-03 -4.3466464072728639e-03 1.3322534704341968e-01  3.7570318586888432e-04 -1.2592387254798966e-03 -1.9636285420591666e-02  2.7144972577072428e-04 -1.1132410954944824e-03 -2.0407244941305816e-02  1.1773045325001142e-03 -5.1994232098918306e-04 6.8673409668907698e-02  1.0960142232812177e-03 -1.3470301749895367e-03 9.6831885561457290e-02  -8.0090038212375907e-04 5.3724631707919841e-04 8.0436509297584571e-02  3.4253177976203458e-03 -1.7235608003669843e-03 1.8294512383100114e-01  -1.1860062568797446e-03 -7.0948048128795481e-03 -1.0241140713982623e-03  3.9229613542207556e-04 -3.3147215128046287e-03 -9.8166243587757135e-03  1.3091091975292893e-03 -4.0846124577889201e-03 -5.7661096507625759e-03  1.6149669388350232e-04 7.1872341576582671e-04 1.7418340696677573e-01  -1.4815439793019596e-04 -6.7082342090798593e-05 1.6227029935401424e-01  2.6575180343613207e-05 -4.7594875344585119e-04 1.5921705495656591e-01  6.7149242068485554e-04 -6.0023052127536640e-04 1.0600875163101962e-01  3.8071651506154259e-04 -4.9754804645973515e-04 8.5933803443211734e-02  1.0581535082790114e-03 1.9068261647296067e-04 1.6208505045440877e-01  1.9570455776631382e-04 5.3444723542560291e-04 2.1273840045496717e-01  1.6903162446837701e-04 -3.6840356738388006e-04 1.6997056668227323e-01  2.7060291668251158e-04 -3.5616586542066300e-04 1.2220023444315527e-01  1.8770275386730434e-04 -4.9460417245020934e-05 2.0382543356355889e-01  4.6886150894510704e-05 -5.2604651772876975e-04 1.2174970164021184e-01  -7.7463412813663049e-04 -6.4771003710002283e-05 -1.7748292794490052e-02  -5.0162963508001198e-04 -2.7370194522325644e-04 -1.8316677540808974e-02  -6.1957662103355232e-04 -1.8990504837239027e-03 9.1451283432102168e-02  1.3863367112932918e-03 -4.5128081438490569e-03 4.7941094205327509e-02  2.6995345984359503e-04 8.1743598744854679e-04 1.9128944421838120e-01  -7.4904928101218640e-05 6.1387900969656832e-04 1.1149295803943202e-01  -2.2273977304046799e-04 1.8229791111431192e-03 2.1203976241791045e-01  -6.1552530017117103e-04 -1.9397694413190254e-05 -1.8402967231933801e-02  -5.4691407098425029e-04 -2.1850305644775801e-05 -1.9176007257794149e-02  1.1350051478451889e-03 4.9551999847411517e-04 1.3718130317155539e-01  -1.4226112776007413e-03 -7.5369664003882000e-04 8.8600128361244535e-02  -3.5577451496671375e-04 -2.8549055387274520e-04 1.2492607716980107e-01  -1.4365347942914067e-03 -1.3518173668536375e-03 1.0728564346106030e-01  -1.0390596112163357e-03 -1.8679317240866144e-03 2.0961331541922057e-01  2.3704415870762176e-05 -2.0853625441606788e-04 -2.1950373122988330e-02  1.2473124323309481e-05 -2.4930255366529169e-04 -2.1892299423431225e-02  3.2318786970478690e-05 -5.5871067427033306e-04 -2.1332832281651025e-02  -3.5016362662561545e-04 4.8035933701218462e-04 8.9108889397860921e-02  -2.0136085487416723e-04 1.9090884994178489e-04 2.1079170939090658e-01  -6.0426833434559281e-04 6.9551853723044134e-04 2.1109472057148757e-01  -7.8347451341941225e-05 2.0396711583096951e-03 1.6135611131340913e-01  6.0050484462182720e-04 3.6439220525734465e-04 1.9183030835851103e-01  1.0259018054847911e-03 4.3297825484036283e-04 1.9509685830244303e-01  1.2133990421287640e-03 -6.2635829872426845e-04 1.7783450009219545e-01  -1.5899572416294629e-04 -1.7829819624466583e-03 -1.6965070988866657e-02  3.8650469124730147e-06 -1.5732679989126867e-03 -1.7844449690214710e-02  1.8705393648910517e-03 1.7750678635741890e-04 5.3471223624222887e-02  -1.3000412899452703e-03 1.3323050701299418e-03 7.8123994316927209e-02  -8.8017370087619361e-06 6.5271295001930504e-04 1.5624927758954901e-01  -7.5842645701739786e-04 1.7122857448906466e-03 1.6984162932734082e-01  -3.9459867446276021e-03 -1.5585257229914096e-03 1.9717304211579290e-01  -5.9686537443580283e-03 2.3086448803182865e-03 1.7834888067626481e-01  -7.8197992133988512e-03 1.2754728518400173e-02 1.4207674601684966e-01  -8.6867427179845424e-03 3.4581775875642310e-03 1.4168202737083976e-01  -1.6465807689082401e-02 1.8000804820036735e-02 1.2551780132590812e-01  -2.2305335194647474e-05 5.4771740255552090e-04 2.2702709279384134e-01  -4.4625943883096702e-04 1.2009485118194363e-03 2.0973359692462176e-01  -5.9449975052420568e-04 9.5483972968976344e-04 1.8490469444706700e-01  6.3222541400374810e-04 9.0561476197341200e-04 2.3616975289663480e-01  -3.2292093471069061e-04 1.8645900344491364e-03 1.9538062118899543e-01  -4.7021768394881863e-04 4.4128865024328128e-04 2.0073457199100253e-01  -4.0248272103164174e-04 6.9852655653974906e-04 2.2150937482414104e-01  5.5488573209999543e-06 -1.3012290128994766e-04 1.7960866998168301e-01  3.4710563178884786e-04 5.2605544876796939e-04 1.8353309418181707e-01  -9.7190389433415175e-04 4.2330496244528053e-04 7.4665891562159054e-02  -3.9951528182919673e-04 1.3418928914182154e-03 1.2321517772875062e-01  -1.2045019372203226e-04 1.0564154982861654e-03 1.3057138876729643e-01  -5.1536074717418914e-04 -4.5597832601792571e-04 5.6565444973548595e-02  6.7098750130736295e-05 6.7253778909301322e-04 8.5308087861716245e-02  -3.0418911659930824e-04 1.4007903661479566e-03 1.2051495775341853e-01  7.1262708935147304e-05 -9.4044950714024375e-04 8.7632016160969745e-02  4.0990670302345393e-05 8.1136819959574675e-04 7.8688946679849714e-02  7.4290083471312864e-03 -1.3820295240548062e-02 7.5892562630990354e-02  9.2972998246300016e-03 -1.1478260788355274e-02 9.0780155855103559e-02  3.9537600650384431e-03 -3.5743706908657048e-03 6.4158420483028306e-02  2.1487518823979881e-02 -1.5383402112995975e-02 1.3442749258346570e-01  -2.0838717933758515e-02 -5.7672707495070455e-03 1.1946727082361254e-01  -1.5006881639310582e-02 -1.6311602480044030e-02 1.1759747957223235e-01  -1.6150400421572815e-03 -6.0016152457110388e-04 -1.2018576372910534e-02  -2.5419708603654869e-03 -3.9844469467953592e-04 -1.0435497164970260e-02  -1.1333534800622885e-03 -4.6779236946595986e-04 -1.4174527216297124e-02  -1.5287359158616938e-03 -7.5151683514401170e-04 6.1636317509891611e-02  5.1728725104911227e-03 -1.9909464238071880e-02 1.2925194333009657e-01  -1.3870772649152022e-03 -1.7811415946882066e-02 8.8543865830859131e-02  5.7215697826122217e-03 -1.7392851533081517e-02 8.8469763850982083e-02  -6.7666125821447256e-03 -9.9661535115400206e-03 9.3644784034974823e-02  1.3221337619981219e-02 8.8593977669575701e-03 1.6426117775244811e-01  1.4795335448041876e-02 2.4965405679715794e-02 1.2906748179413760e-01  1.9692661635497780e-02 1.3912330458016781e-02 1.0087992612126735e-01  9.1548015352523431e-03 8.7922842136438518e-03 1.1035251821103727e-01  1.1629394047163439e-05 -2.0882702045430565e-04 -2.2049956924221719e-02  6.3578610721331464e-05 -2.0490073809059948e-04 -2.1984007974884281e-02  -1.9510695118095278e-04 9.3560177456814453e-04 1.2023565063798058e-01  -1.2418092093035803e-03 1.3544835872492098e-04 -9.5507234692236518e-03  -2.9258825815372809e-03 1.8552630786008504e-04 -7.2688033513401452e-03  -4.5994328125521945e-03 2.4195055182963630e-03 7.8790456462359201e-02  -5.2413096350456864e-05 -5.381