<?xml version="1.0"?>
<VTKFile type="UnstructuredGrid"  version="0.1"  >
<UnstructuredGrid>
<Piece  NumberOfPoints="857" NumberOfCells="3763">
<Points>
<DataArray  type="Float64"  NumberOfComponents="3"  format="ascii">-0.0182597916573 0.126128911972 -0.119588643312  -0.0077641364187 0.0512270443141 -0.07050477713349999  -0.0237180162221 0.16240182519 -0.053058128804  -0.107877351344 0.105669431388 -0.0502408407629  -0.0444478429854 0.116080775857 -0.00235075876117  0.0393674038351 0.112876079977 -0.0491501875222  0.0248903874308 0.0489483103156 0.000152088920004  0.0314915925264 0.114928804338 0.0218031276017  -0.0657326281071 0.0685198307037 0.0497140102088  -0.0355357266963 0.164656624198 0.0508319064975  -0.010538729839 -0.0422629192472 -0.208358153701  -0.0239527057856 0.0135364839807 -0.242119863629  -0.0194642152637 -0.0775559768081 -0.263431429863  -0.08492307364939999 -0.0108216870576 -0.280446648598  -0.08293507993220001 -0.0361198186874 -0.159778758883  -0.0240796487778 -0.0824203491211 -0.148982465267  0.0430508553982 -0.121076337993 -0.234084427357  0.0307756774127 0.0324950888753 -0.198437720537  0.00352357281372 -0.00433266581967 -0.144715368748  -0.0456651262939 0.08372022956609999 0.342343091965  -0.116630032659 0.0117083769292 0.386158525944  -0.08223126828669999 0.0577075146139 0.289406776428  -0.0511222109199 0.00205342215486 0.300772219896  -0.0125984866172 0.0267426930368 0.351842552423  0.0303636882454 0.0561947338283 0.391145974398  -0.0524924062192 0.0543583929539 0.40361738205  -0.07944945245979999 0.130002260208 0.441037595272  -0.000730989675503 0.119443200529 0.385622620583  -0.078488714993 0.137875169516 0.332541137934  0.0142801422626 0.110509291291 0.27100610733  0.0224165506661 0.08303219079970001 0.331783413887  -0.0170432701707 0.161798536777 0.30022162199  0.000811119796708 -0.0515509881079 -0.08419398218390001  0.0888616070151 -0.015075173229 -0.0776951387525  -0.0989535748959 -0.0518730916083 -0.08125374466180001  -0.0433920919895 -0.09785594791170001 0.0106235472485  -0.0488061010838 0.0295096840709 -0.0131453983486  -0.25 0.25 0.5  -0.166666666667 0.25 0.5  -0.25 0.195066730511 0.445658150344  -0.19506166517 0.25 0.445542865294  -0.0213422998786 -0.126349791884 -0.045622177422  -0.117952652276 0.0158270020038 -0.16616243124  -0.0531469397247 0.0490713231266 -0.13630309701  0.0358348339796 -0.131537660956 -0.134171053767  0.0583617314696 -0.115307979286 -0.0462360456586  0.010585160926 -0.0606908276677 0.314250290394  0.078067921102 -0.133790805936 0.331458956003  0.0206208750606 -0.104583717883 0.36723652482  0.0300164371729 -0.13569638133 0.270959883928  0.0797956883907 -0.07311873137949999 0.388136893511  0.0291880238801 -0.0850581228733 0.220644980669  0.0788302049041 -0.07555303722620001 0.284453928471  -0.0465739220381 -0.108428947628 0.305151432753  -0.056692365557 -0.0812899768353 0.234353885055  0.10282895714 0.0630551427603 -0.0452189296484  0.178613707423 0.153893724084 -0.0703043565154  0.0750898644328 0.130835875869 -0.116260357201  0.0179002508521 -0.0400723591447 0.396018892527  0.07961820065980001 -0.020668130368 0.232235535979  -0.00726175494492 -0.022667773068 0.242156982422  0.0524490773678 0.0171752162278 0.310696065426  0.0103002395481 0.0813155695796 0.107229083776  0.00225681974553 -0.008687185123560001 0.0457225777209  0.177950121638 0.25 0.0405701099774  0.151375159621 0.202163234353 -0.00268407491967  0.13042794168 0.172564610839 0.0599601529539  0.184557154775 0.16295710206 -0.00737970136106  0.0827306732535 0.011830884032 0.0299163535237  0.106673434377 0.0676268041134 0.0663062110543  0.25 0.25 0  0.25 0.177947182503 0.0435581305687  0.0251978598535 -0.0201241951436 -0.0233656335622  -0.25 -0.25 0.25  -0.175495340629 -0.25 0.295351832328  -0.25 -0.175776260788 0.294629825204  -0.164853364229 -0.189889326692 0.246240898967  0.111295968676 0.25 -0.00354384794953  0.0417815256417 0.25 0.0264120515999  0.0577150444892 0.25 -0.0418173710713  0.035034801811 0.196921139956 -0.0497792549431  -0.115254960954 0.0352221727371 -0.0357825122774  0.0360979661345 0.0743419006467 -0.130612716079  0.08110298216340001 0.0143552683294 -0.135737240314  0.0281950440258 0.110801942647 -0.38559025526  -0.000352636008756 0.154027625918 -0.45018479228  0.0220217909664 0.07910815626379999 -0.445265561342  -0.041934799403 0.09297795593740001 -0.440330862999  -0.115356497467 0.128115877509 0.0303980205208  -0.08144567906859999 0.192924261093 -0.0396481454372  -0.0503155887127 -0.140062868595 0.370642662048  0.0181560348719 -0.191118896008 0.319997102022  -0.09442232549189999 -0.0766885429621 0.347179293633  -0.10306725651 -0.0245223585516 0.261891931295  -0.0371639840305 -0.192689821124 0.258922994137  -0.08778057992460001 -0.193450272083 0.293951839209  -0.116932563484 -0.137108251452 0.278956532478  -0.0434515699744 -0.19969072938 0.340430229902  -0.016621209681 -0.143479332328 0.208528921008  -0.0799133181572 -0.177766740322 0.206858798862  -0.0340202823281 -0.07231882214550001 0.405357718468  -0.153045728803 -0.0703692808747 0.28540495038  -0.0647673308849 -0.069349065423 -0.297796696424  -0.0468406006694 -0.118580199778 -0.331259429455  -0.0636249184608 -0.122360698879 -0.235275790095  -0.137311711907 -0.115820750594 -0.279358655214  -0.25 -0.25 0.333333333333  -0.00222280388698 -0.0275516584516 -0.327156513929  0.0233143884689 -0.124395690858 -0.330935031176  -0.00544846989214 -0.0444226972759 -0.392852008343  -0.07202984392639999 -0.0450558848679 -0.379192590714  -0.128861442208 -0.0482712239027 -0.325591087341  -0.0319190612757 0.25 0.27473160228  0.0259018652141 0.196524605155 0.343851953745  -0.0424101948738 0.196461260319 0.324036180973  -0.08801463991400001 0.193724930286 0.280150324106  -0.051391992718 0.129726842046 0.244459152222  0.0793330296874 0.131078347564 0.273738384247  0.0304427426308 0.197590425611 0.258007407188  0.139736711979 -0.103549621999 0.308288753033  0.117407329381 -0.00031748006586 0.284001767635  0.17845864594 0.0137020656839 0.2717012465  0.133446916938 -0.07468281686309999 0.252671837807  0.193237304688 0.0103836003691 0.32706490159  0.108656100929 -0.016409387812 0.370573759079  0.195593327284 -0.0705924406648 0.374003827572  0.204297035933 -0.0882691517472 0.283604085445  0.15987212956 -0.0232784096152 0.211559042335  0.103109702468 -0.0715631917119 0.185957938433  0.25 -0.177950121638 0.0405701099774  0.25 -0.111295968676 -0.00354384794953  0.168315500021 -0.181550845504 -0.0129796266556  0.203061833978 -0.0839376300573 0.0201103240252  -0.123973377049 0.0421161539853 0.0831994190812  0.10652089864 0.041568480432 0.133020982146  -0.00508088478819 0.00464248098433 0.118765294552  0.0384838804603 0.0542355030775 0.219570666552  0.0556482039392 0.09942726045850001 0.165778696537  0.25 -0.25 0  0.25 -0.17904445884 -0.0421267671166  0.0085972994566 0.139411628246 0.206887423992  -0.0427397117019 0.0734880268574 0.199836358428  0.25 -0.25 0.166666666667  0.177338154858 -0.25 0.209433902167  0.178222204231 -0.25 0.126578397361  0.180748909712 -0.154124230146 0.180074676871  0.118582360446 0.0498475395143 0.233844980597  0.113276541233 0.115120351315 0.208414897323  0.068451166153 0.123325429857 0.09300038218499999  0.08695217221980001 0.18308262527 0.11987875402  0.1366494596 0.0978636816144 0.125807240605  0.0170362386853 0.165571182966 0.116205818951  -0.075325883925 -0.13042730093 -0.120773427188  -0.191016584635 -0.1764793396 -0.0778442546725  -0.102759346366 -0.20253264904 -0.07015967369080001  -0.126150563359 -0.115044787526 -0.0573479756713  -0.138729035854 -0.104583211243 -0.134180948138  -0.147993162274 -0.138949289918 -0.203295826912  -0.180331096053 -0.192031860352 -0.160557568073  -0.194399222732 -0.0846866071224 -0.148938387632  -0.11259970814 -0.078034222126 -0.193649172783  0.0326924659312 -0.122268341482 0.0296003930271  0.0215157996863 -0.180560961366 -0.0757267251611  0.0956164896488 -0.0493310950696 -0.0164182558656  0.112129375339 -0.112067811191 -0.105549775064  0.127802968025 -0.106147237122 -0.0110959038138  -0.0854129120708 -0.015297700651 0.056893799454  -0.0204317308962 -0.0795602425933 0.117458000779  -0.178222204231 0.25 0.126578397361  -0.177947182503 0.25 0.0435581305687  -0.107976816083 0.25 0.0905854563709  -0.157577678561 0.178241759539 0.0969507619739  0.25 -0.25 0.333333333333  0.25 -0.25 0.25  0.175776260788 -0.25 0.294629825204  0.25 -0.175495340629 0.295351832328  0.0932372882962 -0.0430554822087 0.0724518448114  -0.044769000262 -0.00661279587075 0.403999477625  -0.194478780031 -0.0247275307775 0.332954645157  -0.173761367798 -0.0806607827544 0.396263659  -0.137637495995 0.00523930834606 0.315887242556  0.0864742994308 -0.139340251684 0.176064118743  0.105438224971 -0.136641919613 0.253711819649  0.0308670303835 -0.25 -0.136809572586  0.0367561832589 -0.25 -0.219583441074  0.0925811678171 -0.20055809617 -0.19996842742  0.0127155454829 -0.193433105946 -0.225977659225  0.0415658205748 -0.200880005956 0.196522325277  0.0373581312597 -0.119548290968 0.120048768818  -0.0954102815882 -0.25 0.346414074494  -0.101368582479 -0.25 0.251933327382  -0.0374909392175 -0.25 0.286229296012  0.0852289572358 0.109103307128 -0.27055695653  0.07707493752239999 0.127253636718 -0.199824258685  0.128097131848 0.07648140937090001 -0.209757223725  0.154867321253 0.13628205657 -0.212952241302  0.08678253740069999 0.189277544618 -0.274375885725  0.127699971199 0.0803090333939 -0.326344817877  0.0577741526067 0.0601542405784 -0.31936660409  0.0525139421225 0.129102528095 -0.326874881983  0.0251371748745 0.175572559237 -0.261228203773  0.0199144631624 0.0927290171385 -0.265960127115  -0.148952946067 -0.121583275497 -0.374568909407  -0.25 0.177950121638 0.0405701099774  -0.25 0.111295968676 -0.00354384794953  -0.175531774759 0.135734900832 0.0562076568604  -0.178730383515 0.191659659147 -0.00562386959791  -0.0244714934379 -0.108516678214 -0.387223660946  -0.09279609471560001 -0.170035287738 -0.445968538523  -0.0281062982976 -0.0
[...]
<PointData  Vectors="f_57"> 
<DataArray  type="Float64"  Name="f_57"  NumberOfComponents="3" format="ascii">-2.8288895836659860e-03 4.2964669621756522e-03 1.0434785823768705e-02  -3.2336417669676046e-03 6.2955160376237211e-03 1.9488515842942269e-03  -5.4734337702662308e-04 -2.3723180278558938e-03 1.3288390537971949e-02  -1.3602507099991184e-02 7.5735635104652865e-03 2.5242030087057544e-02  -1.2561553202562208e-02 1.2539945576544469e-02 3.6240460148764878e-02  -1.3827609591145290e-02 -3.0086692092402664e-03 1.2512920810378093e-02  4.8557543560114325e-03 -3.3325192534119342e-03 1.9898640725657070e-03  -1.0602740011889286e-02 2.7189711043561745e-03 1.2859951417472348e-02  -3.5026249534202906e-02 1.7435640600199014e-02 3.6820376015598205e-02  -1.4515589440323001e-02 3.7477633154910771e-03 1.8282967401090658e-02  3.6844933073656544e-04 -2.0300878144788566e-03 2.8603161378415016e-03  1.7975454301654890e-03 -2.8398266948552642e-03 -2.1571569043911777e-03  7.6932693036549935e-04 1.3570112327009240e-03 -2.1162844021880168e-03  3.7522947893003666e-03 -2.4033208568285257e-03 -5.7799920328434340e-03  -6.2267933475132963e-04 5.7865725934920856e-03 5.1177219493516377e-03  -3.5574767176565899e-03 3.0093901870032473e-03 1.0235515314790677e-02  3.9166614791878232e-03 1.2238497152359236e-03 -6.1894961379495468e-03  3.3373117577703267e-04 -1.6519904546696414e-03 -1.6876472537510590e-03  -2.0142185627798816e-03 3.2074566244115407e-03 3.8826750334699373e-03  -1.0444672326619868e-01 2.5132149356108229e-02 1.8504152672296371e-02  -4.8096395888304895e-02 5.4217957151649301e-02 -1.1968444410082291e-02  -3.5094217289524644e-02 3.0638999058121893e-03 2.7242335985083244e-02  -4.5405644179431381e-02 2.7194037660828231e-03 2.3592825133830352e-03  -8.1807647556976434e-02 8.9195582506707241e-02 -3.2917891810962205e-02  -9.7320025164005161e-02 4.7114076163217000e-02 -5.3916297068617287e-02  -3.9686028045793874e-02 -8.5387663606447117e-03 1.8137932697931266e-03  -2.7051920164174192e-01 1.2863801486816359e-01 6.2763871543297114e-02  1.4025224404743670e-02 1.4044576655605196e-02 1.9768019647276942e-02  1.1147624919696501e-01 -1.4015776695628163e-01 -3.0387047922923944e-04  3.4350536813453651e-03 2.7981177587161472e-02 2.1248454604069607e-02  -6.7693959782254051e-02 -7.4159660737696249e-04 -7.9264650551499859e-03  -6.4608664580602632e-02 4.2188104982575934e-02 1.0234003755893246e-02  -1.5513337967626290e-03 3.9216541032754108e-04 3.1180235517338658e-03  -1.6514924438243725e-03 5.6129040308511308e-03 3.0426668816524812e-04  -2.9154427872008144e-03 -1.1560909728559852e-03 4.4366565491072594e-03  1.2278330884766195e-03 -6.1512887561884421e-03 5.0944012279508467e-03  -5.0429884588055118e-03 1.9747021733387302e-02 1.9361753694533683e-02  4.3450959385242466e-01 -4.4930321707451992e-01 3.7712843293169879e-01  2.3511659204704297e-01 -3.3683822062179469e-01 2.5015172499596344e-01  2.8346747961399682e-01 -1.6962366259917258e-01 2.3579230813197827e-01  1.9389400701525009e-01 -2.2396379913991041e-01 1.3846400246413162e-01  -4.8490635182125569e-03 8.7819678963301851e-04 1.1063078414764248e-02  1.8298554859552056e-02 -7.2924503795290026e-03 -1.1544837343167429e-02  -9.6355691677688510e-03 4.6769171494830198e-03 1.2958043704221486e-02  -3.2316765670471889e-03 1.9006798714917813e-03 5.9708676070421730e-03  -3.0751771062367899e-03 -7.3231097678605368e-03 1.7742632975572950e-02  -4.3484520951736411e-02 8.2424755714721430e-03 -2.4413295815203375e-02  -2.6652466038629426e-02 2.1121498496925583e-02 -2.7668566831250466e-02  -3.0156252375688489e-02 3.0645713270151954e-02 -4.2683969127696571e-02  -2.4024126701742060e-02 -4.8305218449250968e-03 -1.1842855754183736e-02  -3.1149104942400349e-02 2.6404321171195299e-02 -7.4357020546150787e-02  -3.7952775359674271e-02 -4.1981396284230766e-03 1.2353087377300597e-02  -3.3802103493084330e-02 -2.9083450551759183e-04 -1.9662459920904790e-02  -1.6241231186192272e-02 7.5091432230983751e-03 -5.2231833354011027e-02  -3.6304380941493748e-02 8.6712278274782839e-03 2.9000997343241207e-02  9.3150834542016833e-04 -1.8491324460700998e-03 -5.2214678118499671e-03  5.9811868749747293e-03 -3.1270672987338910e-04 1.2779224085166310e-02  -5.3548822977039371e-03 -2.6397538209655138e-03 4.9062619583378425e-03  -6.0392797903348207e-02 1.6368541081594372e-03 -4.9876700518981430e-02  -2.2435674970622970e-02 -2.1892664794341417e-03 1.2087112448235090e-03  -4.8471338260760700e-02 4.0882665453472336e-03 2.3338621531652587e-02  -2.1843369486864900e-02 8.2532348485409319e-03 -1.3967249231422027e-02  -3.0585008621310259e-03 -4.7830476754438288e-03 1.2735850836462156e-02  5.2520898323714597e-03 1.2844693817092549e-02 8.4636477225709600e-04  1.2911720625579423e-03 -1.0350019375485492e-02 -6.5489944334003129e-03  2.5170614839691852e-02 3.6403151563886285e-03 -7.7836736905313947e-03  -1.1176467872355770e-02 7.7838020838558054e-03 7.7776944578938738e-03  -1.8239650207655549e-03 -1.4974860056083485e-02 -1.6190027126661087e-02  1.6761785027342578e-03 -4.2777019986108642e-03 -3.4823670531967509e-04  -4.0587288789400737e-03 -4.7071886844745822e-03 1.5137300271001681e-02  7.2886149766488242e-04 -8.8103320576604516e-03 -3.0178736325731210e-03  8.9975078119722729e-04 -9.8728323716957399e-03 -5.9899810219967500e-03  -5.0773236262648506e-03 -4.5945915188595979e-03 -1.4624567316591003e-02  4.9877385674940260e-02 3.6520782039596245e-02 -4.3245017505495226e-02  5.9639915852838954e-02 5.7969626161208751e-02 -2.4572380166126024e-02  5.5395960012656287e-02 4.5683013268072212e-02 -4.7818818225224019e-02  -1.9238458301163866e-03 4.2687745189339030e-02 -3.9325694436261251e-02  5.8997946244496143e-03 -9.2551553518854090e-03 -2.6629805685203655e-03  9.2734145377838390e-03 -1.1274618823189208e-02 -6.1243477701548527e-03  7.4089888792348716e-03 -7.6110880303157996e-03 1.8367100634550141e-04  -1.7280286308952779e-02 3.1300919200835496e-04 -6.3449046822075771e-03  7.7230293725030945e-03 2.5985764505746171e-04 -3.8883292193747053e-03  -4.4942410303767900e-03 -1.7413738666650950e-03 9.6006321124884417e-03  -3.2405425728229097e-03 -3.4951916088172422e-03 -5.0364863159529129e-03  -1.5081148649564026e-03 -7.9711833048778057e-04 6.5865377693391939e-03  -1.8739944549003571e-03 -8.4411993291289684e-04 1.7572862574383012e-03  -9.8426540305770745e-04 2.1478384905062780e-03 3.3185508881465615e-03  -3.8607124193473330e-03 1.0655071165636292e-03 -5.0598324031810168e-04  -2.1236916214352319e-02 1.9533683674266916e-02 2.4719471958382370e-02  1.4713847698525427e-03 1.1818976090917854e-03 -5.3992170743191598e-03  -1.1855586745319281e-01 -4.2740084735600578e-02 -6.3451616887343243e-02  -2.1137742300766222e-02 1.0711640775206523e-03 -2.7142111270924994e-02  -6.0454179238281801e-02 -3.5562684790631013e-03 -8.6216420237580360e-03  -6.6936793582290490e-03 3.9888154055390361e-02 3.2993823725949788e-03  -5.7479230132022094e-02 -2.9757333545168338e-02 2.8369619886443619e-02  8.6017413153825356e-03 -7.2208287388427885e-03 -6.6077353014501572e-02  -9.7665294272263337e-02 1.3022214405622626e-02 1.0258256475075488e-01  -8.2805684494658832e-02 -2.3854599797308165e-02 -2.7414403892479771e-03  -2.8573202921239979e-02 -1.0775191301840006e-02 1.5964525957859008e-02  -1.5773737089186442e-02 2.3205860253085369e-03 -2.8634091084671883e-03  -7.2698023918926449e-02 1.2252929084491122e-02 -6.4569727606644922e-02  1.6743797202261185e-02 9.7309021768495194e-02 -2.6865520493738838e-02  6.2374666660866412e-03 3.9537968767788361e-04 -3.6359138197057470e-03  3.2980566379775486e-03 -2.8608773783006412e-03 -2.5339009093405520e-03  5.7949358359505754e-03 4.7432854822759031e-03 -2.0115311348119429e-03  3.3931775291669579e-03 1.1396635858621578e-03 2.1141159196824940e-03  1.5716254555872289e-01 1.5629592401890485e-01 -7.8987384549456549e-04  1.9334366830469310e-03 1.0294777635973631e-03 -6.2134139468909425e-03  7.4096358920938341e-04 -1.3945687251578865e-03 2.2317384374698837e-03  9.7946601259612056e-04 -1.7192992308651791e-03 -5.7232991267896648e-04  1.0975197678239478e-03 5.1600370187310264e-03 -4.0101048474830729e-04  -2.6410227423620250e-03 7.4774076704342747e-05 -1.0256026503935019e-03  3.8547526032629668e-02 -2.9718056663858145e-02 -1.2213467699972967e-02  -1.4460670424338001e-01 5.5137106568234749e-02 -2.3529351102384591e-02  -5.9481066147664435e-02 -6.0968265997595941e-03 1.4528159225812845e-01  5.0361849391350730e-02 -1.1843398291041166e-01 -1.1019694259459249e-01  5.5807499174017207e-02 -1.8036700906697626e-02 -3.3760883347850240e-02  -1.5921027255834271e-02 6.0715499414612231e-03 -8.5317494623426548e-04  -3.8446558534323892e-03 2.2574041558623367e-03 1.1667332843775531e-02  -2.6294151256292562e-02 -1.1179279727248716e-02 -3.4253046174005146e-02  -1.2687822075362128e-02 2.7814560899393929e-02 -2.4983003606737421e-02  -8.3821720803376500e-03 2.2689515197690708e-02 -1.2586698661208030e-02  -1.9310744281722404e-02 1.0515029787760933e-02 -8.4310765198633807e-03  2.1213950133316086e-02 1.4309952627939973e-02 -9.9335061298949853e-03  -2.8947591392516951e-02 1.8993718608195105e-02 -3.6205716253065900e-02  -2.4861345558186199e-03 -4.8489483969921983e-03 -2.7284450450836335e-02  -7.2194255687811531e-03 3.7679426201379629e-03 -1.9785519024074417e-02  9.1078490117612709e-04 1.1893187129034077e-03 2.2286114631396392e-03  -1.8724929435195315e-02 2.2069997185066272e-02 -8.6597224358511520e-03  2.6999571331801464e-03 9.7216223565380522e-04 -1.1807513527475120e-03  1.7516987306502845e-03 2.2561178051612571e-04 2.2956747640509182e-03  5.4818712307657996e-04 -4.0507430513829848e-04 -1.2442946552515349e-02  6.7490997852071681e-03 1.1320698531024324e-02 8.5489524506008870e-04  -2.0116538356013420e-03 1.3586200390123204e-02 1.1612208996234375e-02  2.2361436079164887e-03 9.1156227240330769e-03 -7.9352046225257301e-03  6.6846990018646175e-03 -2.0860639854913553e-02 -1.1871695663425203e-02  -2.5429851831679725e-02 3.1803293774555610e-02 9.3890722168613987e-03  -1.2309050888431051e-02 1.1167090074250872e-02 3.0945158893415769e-02  2.3672644792676464e-03 1.4742209994749247e-03 1.7685429320372960e-03  2.3971350602989558e-03 1.3329720302775285e-03 4.7279722046944354e-03  -4.0897395230770579e-02 6.2392194226857283e-03 1.3957053882809489e-02  -4.8060892648236049e-02 3.2676335583198629e-02 2.5128628579266437e-02  2.6027371765119469e-03 2.0985490156820558e-03 -9.3593567990437141e-03  3.8278340334306194e-03 2.1693320754455655e-03 -1.2292496192682080e-02  3.3015066799740827e-03 2.0436006613220267e-03 -7.3434017768892008e-03  3.7221614587305374e-03 4.4277644676992186e-03 -2.4812341585192287e-03  -1.6030472548609221e-02 -4.3111188324267066e-03 -1.6715641323383518e-02  -3.2483672751280460e-02 1.3689576934540698e-03 1.1476950614250820e-02  2.7588097251607653e-03 1.0921034276570646e-02 1.7819353413335154e-02  -2.1560626801436902e-02 -6.9724237647444329e-03 -6.8194828574575164e-03  -2.4153851195063331e-03 -6.2149515172465440e-03 5.8049194955879296e-03  -5.9492895017237146e-03 -7.0933853971028660e-03 1.0853254002951654e-04  4.6200843652267534e-03 2.6596508910676046e-03 4.6363868808736068e-03  -9.3442072290609614e-03 -4.2236281222878215e-03 2.7803099424778158e-02  -1.0246952314659644e-03 -1.2736647529252945e-03 1.1478800443782715e-02  7.0327927911711255e-03 1.0163456072109932e-02 -1.8538931552401289e-02  4.1540567180059504e-03 5.6839313633827708e-04 -9.2236808080405283e-03  5.0957067617568982e-03 4.1816771718157118e-03 -6.2228154145810254e-03  2.1799058665855947e-03 -6.7412590911486428e-03 1.0422474976946823e-02  1.0517218101975570e-02 9.1740254535275251e-03 6.4595599331894078e-03  -6.4125667904890828e-03 -6.4229906399511903e-04 1.4975423159459413e-02  -3.1764977931781502e-03 -1.9052501015991230e-03 1.1512878319892752e-02  4.2486888635109299e-03 6.1515225081474906e-03 3.4963140425524580e-03  -8.8151090223432434e-03 6.0517921807214945e-03 6.2757921316007473e-03  -5.6378079356070180e-03 -2.6670850892450957e-03 4.0207427269587925e-03  -2.4934922932188658e-03 9.9529528296036680e-03 -4.0378930286367447e-03  3.4998203532098661e-03 1.9479038930558676e-02 -4.0343975799875149e-03  -8.8412576967487853e-03 -2.0699000030631335e-03 1.0373060155132292e-02  3.7509348922231914e-02 -3.1459424358911511e-02 -3.8814081743747689e-02  2.2417584217131470e-02 -1.8784056796532392e-02 -2.4680855094801602e-02  2.6875713646755409e-02 -2.1898813996279413e-02 -2.5351612059285010e-02  -2.5289896022829741e-03 -4.5277686640241999e-03 1.3118441038511694e-02  3.1852940609812443e-03 3.5246786044282391e-03 -1.8920693514113247e-02  2.4302698604396424e-03 2.3485183722482175e-03 -1.4976767162233137e-02  4.0069036695610525e-03 3.0790809879136152e-03 -1.6320074350291501e-02  2.1634703483909899e-03 1.6879165484459180e-03 -1.7240667321625467e-02  2.3530549164819093e-03 1.5936269498964595e-02 3.7589243466742707e-03  -5.3580841742038900e-02 4.8156395787928262e-02 -2.8632886250040124e-02  -2.6616217927294062e-02 1.1621444050602697e-01 4.3806897897310272e-03  -8.7023713647852580e-02 7.4258687488852282e-02 7.2579198840270857e-03  -7.8207410880461806e-02 5.6996448059668511e-02 4.5220163548523651e-02  1.0335364290781611e-03 1.2728485367139660e-02 -2.4617926892727758e-02  -1.0878472809310539e-02 8.3199504121585673e-03 -1.0348938657039810e-02  4.3116851167745570e-03 7.5278225398900443e-04 8.5831419088986845e-03  2.7711616123812701e-03 1.2833521066940034e-03 1.2379190197138953e-02  -1.4438550710900854e-03 1.4750106164485852e-03 1.3142856753144232e-02  1.6036411521638011e-03 -8.7244810847247564e-04 -2.1478889421006437e-03  -9.5085330183843492e-03 -2.2885313344886450e-03 1.7187739692200239e-03  -1.6421660400315188e-02 9.8163904474707318e-03 -8.8428774226795744e-03  4.9187561941350419e-02 3.4463250884347062e-02 -1.6161161720293395e-02  3.2510602630215817e-02 2.1656773111322501e-02 -2.4035216704194430e-02  2.9475156125352554e-02 1.4524690386999828e-02 -1.6128028475810994e-02  -1.8667229080043778e-03 -3.0948641387025066e-03 2.6018392464816499e-05  3.7063977532286792e-03 -2.4927227207058606e-03 1.5673844856866639e-03  -3.2246524848444768e-03 2.4274122859868699e-03 1.4439376998580547e-02  4.7053329211484867e-04 1.2296268402038112e-03 4.4271115926457260e-03  -2.5413998224662992e-03 3.3496213316138996e-03 1.3104829549141737e-02  2.4237024837143071e-03 -3.7865378563944575e-03 1.1264581353432486e-03  -2.5006469796973207e-04 -1.2149569173096556e-03 3.9752104477209192e-04  -1.9292407686479717e-03 8.4969882169540017e-04 6.0533334893900226e-03  3.6263269074014162e-03 -2.6027749907460455e-03 -2.5504647519913343e-03  9.5117279057769415e-04 1.3254540529596089e-03 4.5846970593330450e-03  1.6176079982812349e-03 -5.0897029361633977e-04 5.3457999121373483e-03  2.0124737658118060e-02 -2.0836268096601801e-02 -2.5245538593305365e-02  1.4619344339004189e-02 -1.4208258331192393e-02 -1.7787866262731624e-02  -7.8901120369743571e-03 2.5314015677722491e-02 3.2026545141453790e-02  1.7958181218467976e-02 6.9689851061982035e-03 2.2537980432593644e-02  -4.2641009458907076e-03 1.4302850812961136e-03 9.9643711393693213e-03  5.5479544489581329e-04 -8.9365854606223176e-04 5.3348218892452122e-03  -3.3885321492265522e-03 1.9698398065506272e-03 1.6000768993845564e-03  1.8290393528575255e-02 -1.7687416286669078e-02 -1.8596725419662084e-02  1.2750424503706876e-02 -1.3092047960850856e-02 -1.2334084254447302e-02  4.6485597400508489e-04 -3.8031426872242222e-03 -1.9037786963770874e-03  5.1336148312247703e-03 3.6222398885147381e-03 8.2651561423731073e-03  4.8962418682011359e-03 -2.4065732861567614e-03 -7.0077422703416839e-03  5.6034806855040061e-03 2.7758405134047531e-03 5.8472361384407862e-03  3.6608040665101053e-03 9.1273164758164387e-04 -6.5383090077062401e-03  9.3368045720230660e-04 -1.4356030055036017e-04 1.4928706706440961e-02  9.4263236497577562e-04 1.5886085981165016e-04 1.6240124073091760e-02  2.5887794042326021e-03 2.7823628368619607e-04 1.3201677795713128e-02  3.4532408330997617e-03 -2.3735851730906370e-03 4.9178827064103739e-03  -2.8555803108582683e-03 4.5605692296165805e-03 6.6869400554601388e-03  -3.5145572200568410e-03 2.3573874231466395e-03 9.4878340900454699e-03  -2.0047326956750666e-03 -7.1303994648658992e-03 2.7154206088019122e-03  1.8530591446817713e-04 -9.3867344821597291e-04 -5.6578930612398350e-03  -8.4857348745811002e-03 1.9135565379889581e-03 1.3853604467882755e-02  -5.9456610441840536e-03 5.0245817576806528e-03 1.9765941922951346e-02  1.6969752777085043e-02 3.9153835832280688e-03 -1.3287341116812698e-02  1.1727124879067385e-02 2.6595514020684740e-03 -5.1679458259336168e-03  1.1560556373146123e-02 -5.4246724768140806e-03 8.3386040403179221e-03  1.3332330837080974e-02 -4.3128415467700090e-03 -1.6414165897392313e-03  5.1018787019300816e-03 -6.6343572142152788e-03 1.6066957613464359e-02  -1.8793729738648035e-03 1.3794242016606966e-03 6.2079526653019386e-03  -2.3261636819497972e-02 2.9352501241744867e-02 1.9329512053745248e-02  4.2374006796860438e-02 -1.5790407408663804e-02 -2.0135464446120473e-02  6.2112830066041881e-02 6.8269160896493264e-02 1.0722960023315223e-01  3.5755932136726967e-02 -5.6393739217664295e-02 -9.7296594167686195e-03  -5.0106322618102564e-02 9.1407282261823819e-02 -1.2590439310492851e-01  1.1717895882573390e-03 6.6467357772135931e-04 1.2256031557588459e-03  -1.2805632246276116e-03 1.2460684176650277e-03 -1.4240161634121488e-03  -4.1248554771178953e-04 -4.1019915887134613e-04 2.3632636045675002e-03  1.0705564179700556e-03 -9.6826429158705424e-04 -4.5986826419183845e-03  -1.2708982026449600e-03 -2.3000796470831874e-03 -1.4438385313682415e-03  5.8632033863116025e-03 -5.6127083321646631e-03 -4.2945178502729565e-03  -1.0945677316935087e-05 1.6250222581184796e-03 2.8640446150024080e-03  -1.1002068387892183e-03 -1.3069775110236667e-03 5.8360259537918822e-03  -1.1183531031181153e-03 1.1201502842118510e-03 3.5509809646700561e-03  3.5497839941209274e-04 1.5795750391256658e-03 1.0293385696350387e-02  8.9958544797343504e-05 3.3497391113449215e-04 8.0408351121105930e-03  -4.9690083464845440e-04 1.2808136299469644e-03 7.2055916676769935e-03  2.2904486732383709e-03 -2.0042652241918013e-03 9.7318827056445331e-03  2.3029084217302178e-03 -1.0946896119109057e-03 5.9905552634378920e-03  9.1604206957892416e-04 -2.0473439491741426e-04 7.9618204533393241e-03  1.2630898644790209e-03 -5.2424344532737402e-04 3.8849207322697154e-03  7.9285768959097157e-04 -3.1150340934992800e-03 6.2395589735356975e-03  8.2659078403498330e-04 1.5993627044831010e-04 -3.7477633976961917e-02  -4.6633128057612652e-04 5.5026983509567414e-03 -2.9634828455792572e-02  -4.1007374723401628e-03 -7.1852899989025892e-03 -2.8748012004315655e-02  -1.9396886748058360e-02 4.6585455978597045e-03 -4.5410706000850475e-02  -6.8738907527185422e-02 6.5656498601045415e-02 -4.5340264810972530e-02  -1.2091931333545636e-01 2.4015104695944648e-02 4.7653208559689644e-02  5.9490490831350572e-02 -5.0807381936064051e-02 -5.7847693528661606e-02  5.9342681100208634e-02 -5.2829914553304450e-02 -3.5902728913655840e-02  4.6453883276354066e-02 -3.3590248901783297e-02 -4.0575945919641865e-02  -7.8808402096797014e-02 5.1585176219931701e-02 1.7056245010029755e-01  -9.4781605008336697e-02 7.5153416672380166e-03 -7.9789162533466448e-02  -1.0131930063841324e-01 -1.6425941760695437e-02 -6.6234144298967318e-02  -3.8029227046747487e-02 4.7696019045927792e-03 -2.9412009711989640e-02  -1.9327209821557451e-01 -7.1181541515796878e-03 3.6272884705543523e-01  -9.7247807716080870e-03 5.4012054279992998e-02 -1.4879453369934252e-02  5.8744050329028576e-03 3.0644992148976653e-02 2.0135309735988295e-02  -1.2240848224543100e-03 -4.8595483370304463e-02 -8.9940637734810865e-03  -2.7784407220556081e-02 -1.0627126422189746e-02 -9.6742834105843931e-02  7.7121041317054718e-04 1.8181403098944319e-04 1.6142063530788377e-02  5.9414382371993644e-04 5.2936870666898139e-05 1.7172009421924737e-02  2.1005627277661206e-03 1.6129363432786681e-04 6.3662741697145982e-03  9.5856887788243778e-02 -7.8885350705264298e-02 -7.8691447902964659e-02  1.0726230340329534e-01 -9.6320880445461651e-02 -7.2816553280848753e-02  3.3979284331037873e-01 -2.510203265813