<?xml version="1.0"?>
<VTKFile type="UnstructuredGrid"  version="0.1"  >
<UnstructuredGrid>
<Piece  NumberOfPoints="857" NumberOfCells="3763">
<Points>
<DataArray  type="Float64"  NumberOfComponents="3"  format="ascii">-0.0182597916573 0.126128911972 -0.119588643312  -0.0077641364187 0.0512270443141 -0.07050477713349999  -0.0237180162221 0.16240182519 -0.053058128804  -0.107877351344 0.105669431388 -0.0502408407629  -0.0444478429854 0.116080775857 -0.00235075876117  0.0393674038351 0.112876079977 -0.0491501875222  0.0248903874308 0.0489483103156 0.000152088920004  0.0314915925264 0.114928804338 0.0218031276017  -0.0657326281071 0.0685198307037 0.0497140102088  -0.0355357266963 0.164656624198 0.0508319064975  -0.010538729839 -0.0422629192472 -0.208358153701  -0.0239527057856 0.0135364839807 -0.242119863629  -0.0194642152637 -0.0775559768081 -0.263431429863  -0.08492307364939999 -0.0108216870576 -0.280446648598  -0.08293507993220001 -0.0361198186874 -0.159778758883  -0.0240796487778 -0.0824203491211 -0.148982465267  0.0430508553982 -0.121076337993 -0.234084427357  0.0307756774127 0.0324950888753 -0.198437720537  0.00352357281372 -0.00433266581967 -0.144715368748  -0.0456651262939 0.08372022956609999 0.342343091965  -0.116630032659 0.0117083769292 0.386158525944  -0.08223126828669999 0.0577075146139 0.289406776428  -0.0511222109199 0.00205342215486 0.300772219896  -0.0125984866172 0.0267426930368 0.351842552423  0.0303636882454 0.0561947338283 0.391145974398  -0.0524924062192 0.0543583929539 0.40361738205  -0.07944945245979999 0.130002260208 0.441037595272  -0.000730989675503 0.119443200529 0.385622620583  -0.078488714993 0.137875169516 0.332541137934  0.0142801422626 0.110509291291 0.27100610733  0.0224165506661 0.08303219079970001 0.331783413887  -0.0170432701707 0.161798536777 0.30022162199  0.000811119796708 -0.0515509881079 -0.08419398218390001  0.0888616070151 -0.015075173229 -0.0776951387525  -0.0989535748959 -0.0518730916083 -0.08125374466180001  -0.0433920919895 -0.09785594791170001 0.0106235472485  -0.0488061010838 0.0295096840709 -0.0131453983486  -0.25 0.25 0.5  -0.166666666667 0.25 0.5  -0.25 0.195066730511 0.445658150344  -0.19506166517 0.25 0.445542865294  -0.0213422998786 -0.126349791884 -0.045622177422  -0.117952652276 0.0158270020038 -0.16616243124  -0.0531469397247 0.0490713231266 -0.13630309701  0.0358348339796 -0.131537660956 -0.134171053767  0.0583617314696 -0.115307979286 -0.0462360456586  0.010585160926 -0.0606908276677 0.314250290394  0.078067921102 -0.133790805936 0.331458956003  0.0206208750606 -0.104583717883 0.36723652482  0.0300164371729 -0.13569638133 0.270959883928  0.0797956883907 -0.07311873137949999 0.388136893511  0.0291880238801 -0.0850581228733 0.220644980669  0.0788302049041 -0.07555303722620001 0.284453928471  -0.0465739220381 -0.108428947628 0.305151432753  -0.056692365557 -0.0812899768353 0.234353885055  0.10282895714 0.0630551427603 -0.0452189296484  0.178613707423 0.153893724084 -0.0703043565154  0.0750898644328 0.130835875869 -0.116260357201  0.0179002508521 -0.0400723591447 0.396018892527  0.07961820065980001 -0.020668130368 0.232235535979  -0.00726175494492 -0.022667773068 0.242156982422  0.0524490773678 0.0171752162278 0.310696065426  0.0103002395481 0.0813155695796 0.107229083776  0.00225681974553 -0.008687185123560001 0.0457225777209  0.177950121638 0.25 0.0405701099774  0.151375159621 0.202163234353 -0.00268407491967  0.13042794168 0.172564610839 0.0599601529539  0.184557154775 0.16295710206 -0.00737970136106  0.0827306732535 0.011830884032 0.0299163535237  0.106673434377 0.0676268041134 0.0663062110543  0.25 0.25 0  0.25 0.177947182503 0.0435581305687  0.0251978598535 -0.0201241951436 -0.0233656335622  -0.25 -0.25 0.25  -0.175495340629 -0.25 0.295351832328  -0.25 -0.175776260788 0.294629825204  -0.164853364229 -0.189889326692 0.246240898967  0.111295968676 0.25 -0.00354384794953  0.0417815256417 0.25 0.0264120515999  0.0577150444892 0.25 -0.0418173710713  0.035034801811 0.196921139956 -0.0497792549431  -0.115254960954 0.0352221727371 -0.0357825122774  0.0360979661345 0.0743419006467 -0.130612716079  0.08110298216340001 0.0143552683294 -0.135737240314  0.0281950440258 0.110801942647 -0.38559025526  -0.000352636008756 0.154027625918 -0.45018479228  0.0220217909664 0.07910815626379999 -0.445265561342  -0.041934799403 0.09297795593740001 -0.440330862999  -0.115356497467 0.128115877509 0.0303980205208  -0.08144567906859999 0.192924261093 -0.0396481454372  -0.0503155887127 -0.140062868595 0.370642662048  0.0181560348719 -0.191118896008 0.319997102022  -0.09442232549189999 -0.0766885429621 0.347179293633  -0.10306725651 -0.0245223585516 0.261891931295  -0.0371639840305 -0.192689821124 0.258922994137  -0.08778057992460001 -0.193450272083 0.293951839209  -0.116932563484 -0.137108251452 0.278956532478  -0.0434515699744 -0.19969072938 0.340430229902  -0.016621209681 -0.143479332328 0.208528921008  -0.0799133181572 -0.177766740322 0.206858798862  -0.0340202823281 -0.07231882214550001 0.405357718468  -0.153045728803 -0.0703692808747 0.28540495038  -0.0647673308849 -0.069349065423 -0.297796696424  -0.0468406006694 -0.118580199778 -0.331259429455  -0.0636249184608 -0.122360698879 -0.235275790095  -0.137311711907 -0.115820750594 -0.279358655214  -0.25 -0.25 0.333333333333  -0.00222280388698 -0.0275516584516 -0.327156513929  0.0233143884689 -0.124395690858 -0.330935031176  -0.00544846989214 -0.0444226972759 -0.392852008343  -0.07202984392639999 -0.0450558848679 -0.379192590714  -0.128861442208 -0.0482712239027 -0.325591087341  -0.0319190612757 0.25 0.27473160228  0.0259018652141 0.196524605155 0.343851953745  -0.0424101948738 0.196461260319 0.324036180973  -0.08801463991400001 0.193724930286 0.280150324106  -0.051391992718 0.129726842046 0.244459152222  0.0793330296874 0.131078347564 0.273738384247  0.0304427426308 0.197590425611 0.258007407188  0.139736711979 -0.103549621999 0.308288753033  0.117407329381 -0.00031748006586 0.284001767635  0.17845864594 0.0137020656839 0.2717012465  0.133446916938 -0.07468281686309999 0.252671837807  0.193237304688 0.0103836003691 0.32706490159  0.108656100929 -0.016409387812 0.370573759079  0.195593327284 -0.0705924406648 0.374003827572  0.204297035933 -0.0882691517472 0.283604085445  0.15987212956 -0.0232784096152 0.211559042335  0.103109702468 -0.0715631917119 0.185957938433  0.25 -0.177950121638 0.0405701099774  0.25 -0.111295968676 -0.00354384794953  0.168315500021 -0.181550845504 -0.0129796266556  0.203061833978 -0.0839376300573 0.0201103240252  -0.123973377049 0.0421161539853 0.0831994190812  0.10652089864 0.041568480432 0.133020982146  -0.00508088478819 0.00464248098433 0.118765294552  0.0384838804603 0.0542355030775 0.219570666552  0.0556482039392 0.09942726045850001 0.165778696537  0.25 -0.25 0  0.25 -0.17904445884 -0.0421267671166  0.0085972994566 0.139411628246 0.206887423992  -0.0427397117019 0.0734880268574 0.199836358428  0.25 -0.25 0.166666666667  0.177338154858 -0.25 0.209433902167  0.178222204231 -0.25 0.126578397361  0.180748909712 -0.154124230146 0.180074676871  0.118582360446 0.0498475395143 0.233844980597  0.113276541233 0.115120351315 0.208414897323  0.068451166153 0.123325429857 0.09300038218499999  0.08695217221980001 0.18308262527 0.11987875402  0.1366494596 0.0978636816144 0.125807240605  0.0170362386853 0.165571182966 0.116205818951  -0.075325883925 -0.13042730093 -0.120773427188  -0.191016584635 -0.1764793396 -0.0778442546725  -0.102759346366 -0.20253264904 -0.07015967369080001  -0.126150563359 -0.115044787526 -0.0573479756713  -0.138729035854 -0.104583211243 -0.134180948138  -0.147993162274 -0.138949289918 -0.203295826912  -0.180331096053 -0.192031860352 -0.160557568073  -0.194399222732 -0.0846866071224 -0.148938387632  -0.11259970814 -0.078034222126 -0.193649172783  0.0326924659312 -0.122268341482 0.0296003930271  0.0215157996863 -0.180560961366 -0.0757267251611  0.0956164896488 -0.0493310950696 -0.0164182558656  0.112129375339 -0.112067811191 -0.105549775064  0.127802968025 -0.106147237122 -0.0110959038138  -0.0854129120708 -0.015297700651 0.056893799454  -0.0204317308962 -0.0795602425933 0.117458000779  -0.178222204231 0.25 0.126578397361  -0.177947182503 0.25 0.0435581305687  -0.107976816083 0.25 0.0905854563709  -0.157577678561 0.178241759539 0.0969507619739  0.25 -0.25 0.333333333333  0.25 -0.25 0.25  0.175776260788 -0.25 0.294629825204  0.25 -0.175495340629 0.295351832328  0.0932372882962 -0.0430554822087 0.0724518448114  -0.044769000262 -0.00661279587075 0.403999477625  -0.194478780031 -0.0247275307775 0.332954645157  -0.173761367798 -0.0806607827544 0.396263659  -0.137637495995 0.00523930834606 0.315887242556  0.0864742994308 -0.139340251684 0.176064118743  0.105438224971 -0.136641919613 0.253711819649  0.0308670303835 -0.25 -0.136809572586  0.0367561832589 -0.25 -0.219583441074  0.0925811678171 -0.20055809617 -0.19996842742  0.0127155454829 -0.193433105946 -0.225977659225  0.0415658205748 -0.200880005956 0.196522325277  0.0373581312597 -0.119548290968 0.120048768818  -0.0954102815882 -0.25 0.346414074494  -0.101368582479 -0.25 0.251933327382  -0.0374909392175 -0.25 0.286229296012  0.0852289572358 0.109103307128 -0.27055695653  0.07707493752239999 0.127253636718 -0.199824258685  0.128097131848 0.07648140937090001 -0.209757223725  0.154867321253 0.13628205657 -0.212952241302  0.08678253740069999 0.189277544618 -0.274375885725  0.127699971199 0.0803090333939 -0.326344817877  0.0577741526067 0.0601542405784 -0.31936660409  0.0525139421225 0.129102528095 -0.326874881983  0.0251371748745 0.175572559237 -0.261228203773  0.0199144631624 0.0927290171385 -0.265960127115  -0.148952946067 -0.121583275497 -0.374568909407  -0.25 0.177950121638 0.0405701099774  -0.25 0.111295968676 -0.00354384794953  -0.175531774759 0.135734900832 0.0562076568604  -0.178730383515 0.191659659147 -0.00562386959791  -0.0244714934379 -0.108516678214 -0.387223660946  -0.09279609471560001 -0.170035287738 -0.445968538523  -0.0281062982976 -0.0
[...]
<PointData  Vectors="f_78"> 
<DataArray  type="Float64"  Name="f_78"  NumberOfComponents="3" format="ascii">6.2531060734413633e-06 1.1000393842607798e-06 -4.6358281024145836e-03  -2.5794654173817567e-06 3.5792991098760441e-06 -4.6306981399809278e-03  -2.0577948949395924e-06 -8.1946657187948989e-06 -4.4214333732839348e-03  -1.7276885548971234e-05 7.0906561805860159e-06 -4.1800199110691490e-03  -1.2605029768875723e-05 9.4389812497395877e-07 -4.6245848486676710e-03  5.8699319752777865e-07 1.3994759465719163e-05 -4.3578068272841939e-03  -3.6784653963763870e-06 4.6402923494920943e-06 -4.6702291190683269e-03  1.2526498641500109e-06 6.6977558310645795e-06 -4.3674266723492715e-03  -8.8130040120939257e-06 -4.3612728450824414e-06 -4.6375238751854399e-03  -9.3726013108798230e-06 1.2451992638156496e-05 -3.8580084074549695e-03  -1.8910348797156638e-06 6.2048673034756287e-06 -4.7011736691575622e-03  -1.8731477688369568e-06 2.3529917985167242e-07 -4.6731368792254585e-03  1.2837642269142591e-06 7.2958377547024360e-06 -4.6198004862370856e-03  -1.1765316713335138e-06 6.4763328954820106e-06 -4.6415979978472579e-03  7.0628369204781946e-06 7.1360090128505922e-06 -4.5440270835488076e-03  2.2283999755417226e-06 1.4229914772910230e-06 -4.5740286151811959e-03  8.9179324389437157e-06 2.3556407438001832e-06 -4.3690970938582464e-03  2.7444423283483149e-06 2.0983482900709500e-06 -4.6730009862539432e-03  3.2741516930803622e-06 2.1872437755103078e-07 -4.6638131693786684e-03  -5.1544265294851518e-06 2.7336584210556647e-05 -4.7390419704338637e-03  -8.9778423801618466e-05 1.5349341525915443e-05 -4.7930776978970906e-03  -1.6212304630620269e-05 2.5560344524544120e-05 -4.5776761095141904e-03  -1.6409282185530681e-05 1.5781917280473583e-05 -4.7238971130975759e-03  1.6456299129459425e-06 1.0678275528914241e-05 -4.7574398835428756e-03  4.3409976770275086e-05 2.2670978259843423e-05 -4.9076146487125041e-03  -1.7016056344221739e-05 6.9644694291968955e-05 -5.1042673737759061e-03  4.1258810371651658e-06 1.5363820260461933e-04 -4.1250352208106909e-03  -3.3978568863145988e-06 1.1314738674749920e-04 -4.4857037834734464e-03  -6.4072775210132570e-05 6.8166371047034946e-05 -4.5459543452544011e-03  -1.3485541458136732e-05 2.5197314836226747e-05 -4.6332609146362766e-03  4.1864347344657879e-06 4.4419277812559635e-05 -4.5878948464576240e-03  -8.1798089325319661e-06 1.6031999731939885e-05 -4.6189844130593407e-03  -1.8696083223288093e-06 3.5117381001515078e-06 -4.6544131637124512e-03  -7.0544940297961807e-06 4.2159720155979023e-07 -4.5027175275366158e-03  -8.5309573979990276e-06 -2.0618489109982695e-06 -4.5115298647218343e-03  -7.3202481653386047e-06 2.5949655123998825e-06 -4.5789121889247501e-03  -3.1810916118066715e-06 5.7302148482177945e-06 -4.6129728393160679e-03  6.8499006047317614e-06 -5.6258008830797654e-06 1.8690374091636173e-05  3.6324358105941934e-06 -9.8774589538439103e-06 1.0251332493085669e-05  4.9475166072352450e-06 2.8731679180719726e-06 1.2257828816984624e-05  -1.7861114773168814e-07 -1.4109941989281104e-06 9.3925039688737071e-06  -1.0788823977960790e-05 8.6834266617903332e-06 -4.2978281139686263e-03  1.0942654246009265e-05 1.0067191476755609e-05 -4.5809384252900008e-03  1.4047152399245851e-06 5.5962004327583331e-06 -4.6792088803108206e-03  -3.8643769818612259e-06 -2.6824670014849814e-07 -4.5110379636412751e-03  1.4141861997052692e-06 -4.4016592129183789e-06 -4.3362956965905287e-03  4.9782039432838666e-06 -7.8598737690389414e-06 -4.7481045243799383e-03  -6.3699217958593041e-06 -2.6842250582875055e-05 -4.5100780160154518e-03  -6.3428748893412483e-05 -4.9506495112299287e-05 -4.7250775168216725e-03  -1.0979711633076363e-05 -4.1321700990466199e-06 -4.3951622999337222e-03  6.2538004975407527e-05 -6.8990302274374952e-05 -4.6068642504110682e-03  -3.6499626774932987e-06 -7.3036636035790193e-06 -4.6573103993286019e-03  -2.3046448555468937e-06 2.4495538365333272e-06 -4.5934960054416444e-03  -2.6686418489837156e-05 -2.8209615494427398e-05 -4.3258221034983323e-03  -1.7563885793129860e-05 -3.8267644155317932e-06 -4.5790933498651536e-03  -9.4657506230064783e-06 1.0258175610049840e-05 -4.4261523587632301e-03  2.8942363075633017e-05 4.6669240690923460e-05 -3.0749150220784381e-03  -4.3954125160526664e-06 4.3885431587867010e-06 -4.0937296325711985e-03  -2.3831221052677061e-05 1.3716629102006536e-05 -5.0278219019817280e-03  -1.2959464237785420e-06 9.6553007581169521e-07 -4.6175392673171913e-03  -4.6147365050027205e-06 5.8017919138036173e-06 -4.6825148109345396e-03  8.2506443735838973e-06 1.8536119924481187e-05 -4.7083989374802045e-03  -1.6196722287339816e-06 5.4250343681177273e-06 -4.5667401253903905e-03  -6.1288328423719720e-06 2.5060732822367913e-06 -4.7035621747838607e-03  4.5381598394668072e-07 -4.6656027347372632e-06 6.0705454223871833e-08  5.6207898503039812e-05 -1.0235020404607387e-06 -2.8937488199169766e-03  -2.1511180422174496e-05 -3.1997745040676077e-05 -3.5053052245238199e-03  -2.3059594746135252e-05 7.8491280526472421e-06 -3.2563210059238993e-03  -5.2752134548051512e-06 1.0751502115878113e-05 -4.6128849382697764e-03  -1.2440442680698796e-05 6.1954413087021466e-06 -4.5271516956633924e-03  3.5602695689549989e-06 3.8292763115469868e-06 1.0584458930223990e-06  -4.4631973447530728e-06 8.9787645030964891e-07 -3.6929308633744603e-07  -3.7165673246629779e-06 2.0223360566830563e-06 -4.7042880449240064e-03  -8.8727378985728982e-06 -5.6866383325079687e-06 -4.3476981486620049e-06  -2.1399860688479902e-06 6.2878791870130769e-06 8.9204009603628124e-07  9.7133345104935829e-06 4.2053264769069913e-07 7.9904194467504905e-07  2.9514155438627365e-06 -3.1737835009096485e-05 -2.4272949432793127e-03  1.0180729695986508e-06 8.8536271604949742e-07 2.2609776153132618e-06  -6.4921975544231568e-07 -6.9884113457905545e-07 3.3968612112673339e-07  -1.8428880981854592e-07 -2.8462452403427198e-07 4.8108559765518178e-07  -8.5457373128845260e-06 1.2712703856782606e-05 -3.4267003078856349e-03  -1.7398846652688999e-05 -1.5457894310685772e-06 -4.3868984738382301e-03  1.4369605195953176e-06 1.9556168774721507e-06 -4.6787554202958690e-03  7.5104918716036069e-06 8.9500594369595103e-07 -4.5556397179795241e-03  -5.1451335298026841e-06 -1.3430486817057176e-05 -4.4345962416875726e-03  1.2540185891132213e-05 -4.2217679294283481e-05 -3.5203418634546933e-03  4.5997145745657773e-06 -4.5396123482844083e-06 -4.6070981853050539e-03  6.9391809890067347e-06 -3.3362106048695477e-05 -4.4783661399642339e-03  -5.8752033356589603e-06 -1.9400135726926152e-05 -4.2862439381915829e-03  -4.0045669515494742e-05 1.7793405083695602e-05 -3.0370416825625107e-03  2.0346424968042051e-05 -7.3621734367594179e-05 -4.3459860307704032e-03  -1.5272552342600320e-05 1.2360658774531982e-05 -3.7131026204566988e-03  -3.9773088283442487e-05 -1.8059640861285674e-05 -4.3681908984940163e-03  -1.7325822889329947e-05 -5.4704009663481810e-06 -4.5898635946017424e-03  -3.0636043909871442e-05 1.1759831413952713e-05 -3.6165118189090671e-03  -3.7603421255483152e-05 -1.0566624191890292e-04 -3.4273851733453375e-03  -3.8455092835229809e-05 -2.6338143452212685e-05 -4.1014095372317611e-03  2.7550215636750984e-05 -3.3675758692714975e-05 -3.2461717181150318e-03  9.5764233576865327e-07 4.7907149497276382e-06 -4.5536901803437547e-03  -7.3961192540530175e-06 2.8513639291511445e-05 -3.7378466178229568e-03  -5.7106604471727323e-05 -1.3488319588735305e-06 -4.7509276547774912e-03  -1.8540568523597577e-06 1.1155297858846158e-05 -3.4035803844665487e-03  5.9913325324961178e-06 7.5110234751284672e-06 -4.5812246301752809e-03  4.8401329680625210e-06 6.6538726968177840e-06 -4.4293751143114277e-03  4.3567464473691088e-06 -3.8665542616521463e-06 -4.2681169470392358e-03  1.1933279634808625e-06 1.4018754521324157e-05 -4.0664306215042190e-03  -2.0332084904403004e-06 -2.0835436111688869e-06 3.9133193847831416e-06  4.8333253919906688e-06 3.6719673393580831e-06 -4.6387372146758834e-03  -2.7891069005115767e-06 1.2088415246732004e-05 -4.6129276993305893e-03  3.4019843049639883e-06 1.6704857386586866e-05 -4.5842584372773826e-03  5.1013458635449562e-06 1.3806129334967250e-05 -4.4830270600337624e-03  1.0098223423063335e-05 7.8554458128929232e-07 -4.0012357649867854e-03  6.5315418975319811e-07 2.1583304934314347e-06 -2.0259326124508785e-08  2.8441232923926421e-05 8.6968111091371275e-05 -3.7968809889237761e-03  -6.8560773202453203e-05 1.0476778814600544e-04 -2.9600881611905050e-03  4.9228010441112293e-05 -2.1739527224429912e-05 -3.2150977389176008e-03  -6.0513672130348619e-06 2.5107105799806916e-05 -4.5919551247719619e-03  -8.4374018480990527e-06 1.3873601413864111e-05 -4.1141416258449566e-03  1.0102779857049339e-05 -4.8872664983477912e-05 -3.8614121365828763e-03  3.3322000535694004e-05 -5.1446811911068211e-06 -4.3353028752405104e-03  9.0615875683622629e-06 2.9873920444349391e-05 -4.6011133116713038e-03  -7.1113265233414412e-08 8.7943021446579984e-07 -3.4487476570262141e-03  -2.5083609778558139e-05 2.7334053987136272e-06 -3.8320304693634953e-03  -4.2440978462603235e-06 9.0068397646695826e-06 -3.5479481887676994e-03  6.8992140142269472e-05 2.1486192168625536e-05 -4.6757840966279666e-03  9.4472124929121247e-05 3.6567304309262343e-05 -3.4555559580106633e-03  6.1283524061462724e-06 3.6930058693173477e-05 -3.8334772684189698e-03  -2.7567404020929741e-05 7.8499213477073568e-06 -4.3091971156138551e-03  -1.4370936751016003e-05 -7.1376325130077200e-08 -4.1778228001397221e-03  8.7895639675306087e-07 -2.7228766468978287e-06 -1.0032932647875417e-06  1.7321079726516589e-06 -2.2014888195164852e-07 -1.0721287808841130e-06  -8.0137719190049415e-05 6.1911870687239264e-05 -3.3164329066612754e-03  4.8194697284918627e-05 -2.6915702244483652e-05 -2.9162184020322156e-03  1.1471875626299854e-05 7.8115069843970387e-06 -4.4109606152737367e-03  4.0712229007718602e-06 7.6093312505625237e-06 -4.4424854327357322e-03  -4.0459897248638147e-06 4.5108403862192984e-06 -4.6566240805779695e-03  -1.9100601743860745e-06 1.2964178870233757e-05 -4.6650312607527111e-03  4.7892703162636555e-06 1.3167818973711259e-06 -4.5909565046330075e-03  1.4982715386138721e-06 -3.3838388036443828e-06 2.0065366464938608e-06  -7.2094527248038201e-06 -5.8600290138671958e-07 -2.2125025895187488e-06  -7.3694628453785925e-06 2.9635977986539062e-06 -4.0754185871994140e-03  -3.7805797132874244e-06 1.6619836390571640e-05 -4.5669154744256597e-03  5.6423178230502936e-06 -5.9924494543503426e-06 -2.5238400906547228e-07  1.9387019666841653e-06 3.2876558849332193e-06 -2.6665278626498385e-07  1.1667918313903116e-06 6.3308153733352186e-06 1.4932790388302566e-06  -1.0250763225488138e-05 1.9748632076885740e-05 -3.5165380323021445e-03  8.0596325863479469e-06 1.9466249072614241e-05 -4.3936787624192153e-03  8.4182229450279850e-06 3.7614103283742910e-06 -4.0044359645202395e-03  -4.4690695117591390e-06 7.0817129852711686e-06 -4.4630639380293284e-03  5.4200275345544321e-06 -1.4325693134624979e-05 -3.6361899163670501e-03  -8.8130984478607358e-06 -2.6278796659296242e-05 -3.6248114671952906e-03  3.2401514375556502e-05 1.0806058002288620e-05 -3.5839774729911154e-03  -3.0695672213790741e-06 9.4782809938425093e-06 -4.2106940276295237e-03  -4.6731005190918506e-05 -3.8858205595557722e-05 -3.3109793067553845e-03  1.8578525064680405e-05 -3.8168679374377404e-05 -2.8309387005608154e-03  -2.0416732520207526e-05 -2.2855678083139687e-05 -4.0492398216884912e-03  3.1437117890654379e-06 1.8683103942172595e-05 -3.7842923193189041e-03  1.4194654242983629e-05 -2.9758900389151215e-06 -3.9520391257691408e-03  2.2601300420911617e-05 8.2097393755130569e-06 -2.8786021834030623e-03  -2.1723220203983298e-05 -2.7121618751714850e-05 -3.4687546262133612e-03  9.4703427205380495e-06 -9.4581937570331432e-07 -4.3648434085866395e-03  -7.0418410617714639e-06 -4.1844724961905762e-06 -4.4200437979147822e-03  -9.4447181270875601e-06 1.3387125510351128e-05 -2.8503806185477668e-03  9.6659123959276140e-06 -3.9999885728376159e-06 -4.4166301910433265e-03  1.8955911226088662e-06 -8.9980596326829038e-06 -4.1578528356177079e-03  -2.2844675111795480e-06 8.6481947555101055e-06 -4.2164244129335475e-03  9.3353252990176704e-07 -1.4097314649808049e-06 -4.6178038414446242e-03  -7.4188057595104452e-06 -3.4237182097646726e-07 -4.6741060001051025e-03  -1.8321080591303170e-06 -5.5009880366928964e-06 1.9009555449750873e-07  -4.5013618322146349e-07 -7.9404304008586606e-06 4.4646456922120322e-08  3.0840809377035638e-06 1.0292404094848681e-06 1.5327553844519824e-06  5.6288921427692331e-06 -9.1368316262982772e-06 -3.2001945491157533e-03  5.0370433058006986e-06 -2.7513344703521414e-06 1.0049289551195187e-06  2.0373018059911993e-06 -5.7826550686722619e-06 -1.9031268580402589e-06  8.8842067569573685e-07 4.9010732505022682e-06 1.0330222169537498e-07  -4.3341167269884134e-06 -1.7618186677902056e-06 -1.5244566054593002e-06  -1.0843970640059743e-05 6.4780032965225115e-06 -4.5026408756200552e-03  -1.7381765320092658e-05 6.5018336043941743e-07 -4.9523514147722545e-03  -4.0195249323420745e-05 -6.0008966226710978e-05 -2.8352336877900423e-03  -9.4192773929670467e-05 -3.3529314663788024e-05 -4.0208243298002011e-03  7.1743486055113530e-06 -7.6616646753759824e-06 -4.2300512659443805e-03  -1.9602514051909304e-06 1.0090513908250927e-05 -3.9253858855941371e-03  -9.9159812269537819e-07 -1.5594844519775262e-05 -4.3154920439222874e-03  7.0825374461228545e-08 -1.2771166665537498e-06 9.8043188210769939e-07  1.9087253537156281e-06 5.8745841289586580e-06 1.6818682408931968e-06  5.8800895440665517e-05 -7.5605596175877415e-05 -3.1560809724847949e-03  -2.0717422448401739e-05 1.1070772932063995e-06 -2.4070848863270004e-03  -8.0591367489917862e-06 -1.4032007093055632e-05 -3.9144961529667399e-03  -1.9308905126717063e-06 1.3936508222388464e-05 -4.3260197592943691e-03  6.9355207478091368e-07 7.4515838426431347e-06 3.3397463890661893e-06  8.7978383036598232e-07 -2.3257403256471752e-06 8.3333803274983330e-07  -1.8298390096278884e-06 -4.1853047372432620e-06 -3.5559151975574215e-07  1.1279097912534444e-05 -2.7588783013361568e-06 -4.4892274584119006e-03  2.9737428314932900e-06 -7.8440893042113865e-06 -4.4714516131309197e-03  8.3229417526076507e-06 3.1510309340496257e-06 -4.2846294200392194e-03  3.5493139276204834e-05 1.6974025967281524e-05 -3.9204915849238367e-03  -1.5515230173601987e-07 -7.0643825754884302e-06 -3.7502244763102785e-03  1.4152232501416788e-06 -1.5032935731536068e-06 -4.5004623741153257e-03  1.7350584016842176e-06 -4.9472971275637295e-06 -4.6009956074886619e-03  -7.1503244791687141e-06 -1.0241418539138518e-05 -4.0361631267216954e-03  -5.1346283827821576e-06 -7.2480955337178434e-06 -4.3561782106498964e-03  9.6797920460640681e-07 8.8608555326017610e-07 -4.6241428213939029e-03  1.7091232348010965e-05 -1.1664847715798969e-05 -4.0717608377472507e-03  5.2210233855975640e-06 -5.2189374904223012e-07 6.5618981900453034e-07  -5.5349808705990605e-06 -2.1199292458037478e-06 7.0519261153225065e-07  3.2589272620674979e-05 -4.8945701801491120e-05 -3.0842413639338168e-03  -3.2672459758626354e-05 -1.1536215058813913e-05 -3.0955526700672080e-03  2.0158653546732175e-06 5.2381802147226211e-05 -4.2227753269510997e-03  3.3932553445537626e-06 3.5173825972750499e-05 -3.9953358823739222e-03  9.2486696127806852e-06 2.7592176798759077e-05 -4.5493321548866648e-03  -6.5469157289065195e-06 4.2504610170458810e-06 -4.1669448701600774e-07  5.5161878725846821e-06 4.9593231718350504e-07 1.3866388652292302e-06  4.2663765513407212e-06 -2.2854444743238631e-05 -4.5393910316913720e-03  1.4410048269267551e-05 2.3408384776056326e-06 -3.3875315097426531e-03  -6.9062144117327910e-06 -1.5332854954286303e-05 -2.9896792909062443e-03  -9.7706883656469946e-06 2.1994564437067892e-05 -3.9986465470234689e-03  3.3589242165535918e-06 3.1334922522039045e-06 -4.6402914029253029e-03  1.4572059890648395e-06 5.5166304444978819e-07 -5.2884051885014348e-06  1.9159547942255695e-07 1.1399373173176221e-06 -3.2321402613801693e-06  -4.3774708395805209e-07 -7.1658269696809843e-08 6.5589063058952745e-07  1.5815044097218607e-05 -6.6467531942413331e-06 -3.6493849933699743e-03  5.4255785345189843e-06 3.0732569381150514e-06 -4.6034207028043429e-03  2.8033684085598184e-06 4.1660486868794982e-06 -4.6415888875880953e-03  -1.3555405717899316e-06 1.0088483925299730e-06 -4.0543479680183623e-03  9.9327191387135011e-06 2.0555541189258350e-06 -4.5549285279707710e-03  -2.4626810380903460e-06 -5.0759956975561959e-06 -4.5988931597335612e-03  3.3512827567254347e-07 1.7055890706931074e-07 -4.4590546166615895e-03  -1.0088165801490966e-06 2.8067996396299266e-06 6.4182315640691225e-08  -1.7136468889219649e-07 -2.0741717449603858e-06 1.6934555714151318e-07  -3.0206345343959380e-06 -9.1093927726265012e-06 -3.2402499118595819e-03  2.8668893843519973e-06 2.4321572295796585e-06 -3.3055467236191138e-03  2.4804205340459580e-05 -6.5200170784919582e-06 -4.4743311009543133e-03  1.0428553099171554e-05 -4.3471557668165621e-06 -4.4131188184657793e-03  -1.2914630445151586e-05 -3.2403860085595296e-06 -4.5815979536184331e-03  -3.4682626485450763e-07 -2.5649468355956068e-06 -4.1473780596659156e-03  -1.4052889839972910e-05 1.7549072751411900e-05 -3.9904809614626302e-03  -2.3552286672926971e-05 2.5028017573403011e-05 -4.1249809759839788e-03  -6.6862561251958006e-05 6.1396930803975109e-05 -4.2491899822063063e-03  1.3989802989555341e-05 2.6774767698125923e-06 -4.6272267663529845e-03  3.2442079437203240e-05 1.7147121967678125e-05 -4.6621203047846928e-03  2.3251067927973249e-05 4.5046793944052297e-06 -4.2633189167077768e-03  1.1934356068525699e-07 -9.6223394648528778e-08 -4.6318186155409691e-03  2.4621988032640031e-05 -1.0231634222683829e-05 -4.5003852661333506e-03  9.0356841113392369e-06 -1.3728383815177237e-05 -4.5914946288327721e-03  3.6930278171103206e-06 -6.1083788892682153e-06 -4.6344804912220247e-03  1.0097753940519868e-05 5.7261480097967625e-06 -4.2824715725110502e-03  -9.0764048369848166e-06 3.7369750298427308e-06 -4.2086970721584103e-03  1.6350371204349778e-05 -1.7843408218526960e-05 -2.6235009007468512e-03  -4.0245233318583385e-06 -1.1834951078167956e-05 -4.0188651574014286e-03  -1.2215824013976911e-05 -1.5895474069596424e-05 -4.5149979436389367e-03  -1.9196479769850001e-05 -2.0300330227023449e-05 -4.0674119789150722e-03  2.3707954162789137e-06 3.1415839155087726e-05 -3.7172690729342667e-03  -2.2836369689424343e-05 -1.9235748395427787e-06 -3.8324140411914198e-03  -1.7814029895276666e-05 -1.3031552639525055e-05 -4.1986677783789764e-03  -1.2317342233156156e-05 7.7405629641802039e-07 -3.3341442021044996e-03  8.2297621722084244e-05 2.9124141487379363e-05 -3.1156545833863946e-03  -1.6425394692691568e-05 1.3393739319300777e-05 -2.9037511115997754e-03  1.8760313035091714e-05 -4.0296434646940274e-05 -3.6711582829950730e-03  3.9241927793966260e-05 -3.0809953814257246e-06 -4.3042221170911813e-03  -1.9600666271725174e-04 -2.9004368122450311e-05 -4.1543253004461302e-03  -1.0606594805150215e-04 -5.0584152946689732e-05 -3.8571318490655420e-03  -3.4084950609247979e-07 -4.5218555210608210e-06 9.2538991813220318e-08  -1.0138536028023871e-06 -7.8627342272608538e-06 -9.7939534990566040e-07  -2.2234598406418770e-07 6.7680142345353494e-06 8.6237302321431053e-07  -7.3742276206156120e-06 -1.5163397616594088e-05 -3.4166383276417090e-03  2.5402738171079111e-05 -5.0747227760477559e-05 -4.3215806303872157e-03  -1.2530907461805859e-05 -1.3097202331343352e-04 -3.8694101670419217e-03  -4.6021107664433594e-05 -7.3094176063085540e-05 -3.8164840796127883e-03  -1.3158293091273946e-05 8.3194097261807512e-06 -3.3002567888768923e-03  2.8489578384911343e-05 1.9428055048468514e-05 -4.5047300489181822e-03  7.3980239871265557e-05 5.9010382057405751e-05 -4.3332962824037969e-03  2.6312408968254427e-04 -6.5122646996235224e-06 -3.1020295164139247e-03  -6.6302840990566926e-06 3.9997059142963108e-06 -3.5138435730215876e-03  2.3791867813916746e-06 3.8718256516696709e-06 -5.5735303291164572e-06  -8.0622622527935195e-07 3.9390502537476819e-06 -4.6622099838566209e-06  4.7454463100148773e-06 7.7655298495911854e-05 -3.8443590403051051e-03  -3.6299915258683901e-06 6.9219656420991948e-06 -2.84470428886559