<?xml version="1.0"?>
<VTKFile type="UnstructuredGrid"  version="0.1"  >
<UnstructuredGrid>
<Piece  NumberOfPoints="857" NumberOfCells="3763">
<Points>
<DataArray  type="Float64"  NumberOfComponents="3"  format="ascii">-0.0182597916573 0.126128911972 -0.119588643312  -0.0077641364187 0.0512270443141 -0.07050477713349999  -0.0237180162221 0.16240182519 -0.053058128804  -0.107877351344 0.105669431388 -0.0502408407629  -0.0444478429854 0.116080775857 -0.00235075876117  0.0393674038351 0.112876079977 -0.0491501875222  0.0248903874308 0.0489483103156 0.000152088920004  0.0314915925264 0.114928804338 0.0218031276017  -0.0657326281071 0.0685198307037 0.0497140102088  -0.0355357266963 0.164656624198 0.0508319064975  -0.010538729839 -0.0422629192472 -0.208358153701  -0.0239527057856 0.0135364839807 -0.242119863629  -0.0194642152637 -0.0775559768081 -0.263431429863  -0.08492307364939999 -0.0108216870576 -0.280446648598  -0.08293507993220001 -0.0361198186874 -0.159778758883  -0.0240796487778 -0.0824203491211 -0.148982465267  0.0430508553982 -0.121076337993 -0.234084427357  0.0307756774127 0.0324950888753 -0.198437720537  0.00352357281372 -0.00433266581967 -0.144715368748  -0.0456651262939 0.08372022956609999 0.342343091965  -0.116630032659 0.0117083769292 0.386158525944  -0.08223126828669999 0.0577075146139 0.289406776428  -0.0511222109199 0.00205342215486 0.300772219896  -0.0125984866172 0.0267426930368 0.351842552423  0.0303636882454 0.0561947338283 0.391145974398  -0.0524924062192 0.0543583929539 0.40361738205  -0.07944945245979999 0.130002260208 0.441037595272  -0.000730989675503 0.119443200529 0.385622620583  -0.078488714993 0.137875169516 0.332541137934  0.0142801422626 0.110509291291 0.27100610733  0.0224165506661 0.08303219079970001 0.331783413887  -0.0170432701707 0.161798536777 0.30022162199  0.000811119796708 -0.0515509881079 -0.08419398218390001  0.0888616070151 -0.015075173229 -0.0776951387525  -0.0989535748959 -0.0518730916083 -0.08125374466180001  -0.0433920919895 -0.09785594791170001 0.0106235472485  -0.0488061010838 0.0295096840709 -0.0131453983486  -0.25 0.25 0.5  -0.166666666667 0.25 0.5  -0.25 0.195066730511 0.445658150344  -0.19506166517 0.25 0.445542865294  -0.0213422998786 -0.126349791884 -0.045622177422  -0.117952652276 0.0158270020038 -0.16616243124  -0.0531469397247 0.0490713231266 -0.13630309701  0.0358348339796 -0.131537660956 -0.134171053767  0.0583617314696 -0.115307979286 -0.0462360456586  0.010585160926 -0.0606908276677 0.314250290394  0.078067921102 -0.133790805936 0.331458956003  0.0206208750606 -0.104583717883 0.36723652482  0.0300164371729 -0.13569638133 0.270959883928  0.0797956883907 -0.07311873137949999 0.388136893511  0.0291880238801 -0.0850581228733 0.220644980669  0.0788302049041 -0.07555303722620001 0.284453928471  -0.0465739220381 -0.108428947628 0.305151432753  -0.056692365557 -0.0812899768353 0.234353885055  0.10282895714 0.0630551427603 -0.0452189296484  0.178613707423 0.153893724084 -0.0703043565154  0.0750898644328 0.130835875869 -0.116260357201  0.0179002508521 -0.0400723591447 0.396018892527  0.07961820065980001 -0.020668130368 0.232235535979  -0.00726175494492 -0.022667773068 0.242156982422  0.0524490773678 0.0171752162278 0.310696065426  0.0103002395481 0.0813155695796 0.107229083776  0.00225681974553 -0.008687185123560001 0.0457225777209  0.177950121638 0.25 0.0405701099774  0.151375159621 0.202163234353 -0.00268407491967  0.13042794168 0.172564610839 0.0599601529539  0.184557154775 0.16295710206 -0.00737970136106  0.0827306732535 0.011830884032 0.0299163535237  0.106673434377 0.0676268041134 0.0663062110543  0.25 0.25 0  0.25 0.177947182503 0.0435581305687  0.0251978598535 -0.0201241951436 -0.0233656335622  -0.25 -0.25 0.25  -0.175495340629 -0.25 0.295351832328  -0.25 -0.175776260788 0.294629825204  -0.164853364229 -0.189889326692 0.246240898967  0.111295968676 0.25 -0.00354384794953  0.0417815256417 0.25 0.0264120515999  0.0577150444892 0.25 -0.0418173710713  0.035034801811 0.196921139956 -0.0497792549431  -0.115254960954 0.0352221727371 -0.0357825122774  0.0360979661345 0.0743419006467 -0.130612716079  0.08110298216340001 0.0143552683294 -0.135737240314  0.0281950440258 0.110801942647 -0.38559025526  -0.000352636008756 0.154027625918 -0.45018479228  0.0220217909664 0.07910815626379999 -0.445265561342  -0.041934799403 0.09297795593740001 -0.440330862999  -0.115356497467 0.128115877509 0.0303980205208  -0.08144567906859999 0.192924261093 -0.0396481454372  -0.0503155887127 -0.140062868595 0.370642662048  0.0181560348719 -0.191118896008 0.319997102022  -0.09442232549189999 -0.0766885429621 0.347179293633  -0.10306725651 -0.0245223585516 0.261891931295  -0.0371639840305 -0.192689821124 0.258922994137  -0.08778057992460001 -0.193450272083 0.293951839209  -0.116932563484 -0.137108251452 0.278956532478  -0.0434515699744 -0.19969072938 0.340430229902  -0.016621209681 -0.143479332328 0.208528921008  -0.0799133181572 -0.177766740322 0.206858798862  -0.0340202823281 -0.07231882214550001 0.405357718468  -0.153045728803 -0.0703692808747 0.28540495038  -0.0647673308849 -0.069349065423 -0.297796696424  -0.0468406006694 -0.118580199778 -0.331259429455  -0.0636249184608 -0.122360698879 -0.235275790095  -0.137311711907 -0.115820750594 -0.279358655214  -0.25 -0.25 0.333333333333  -0.00222280388698 -0.0275516584516 -0.327156513929  0.0233143884689 -0.124395690858 -0.330935031176  -0.00544846989214 -0.0444226972759 -0.392852008343  -0.07202984392639999 -0.0450558848679 -0.379192590714  -0.128861442208 -0.0482712239027 -0.325591087341  -0.0319190612757 0.25 0.27473160228  0.0259018652141 0.196524605155 0.343851953745  -0.0424101948738 0.196461260319 0.324036180973  -0.08801463991400001 0.193724930286 0.280150324106  -0.051391992718 0.129726842046 0.244459152222  0.0793330296874 0.131078347564 0.273738384247  0.0304427426308 0.197590425611 0.258007407188  0.139736711979 -0.103549621999 0.308288753033  0.117407329381 -0.00031748006586 0.284001767635  0.17845864594 0.0137020656839 0.2717012465  0.133446916938 -0.07468281686309999 0.252671837807  0.193237304688 0.0103836003691 0.32706490159  0.108656100929 -0.016409387812 0.370573759079  0.195593327284 -0.0705924406648 0.374003827572  0.204297035933 -0.0882691517472 0.283604085445  0.15987212956 -0.0232784096152 0.211559042335  0.103109702468 -0.0715631917119 0.185957938433  0.25 -0.177950121638 0.0405701099774  0.25 -0.111295968676 -0.00354384794953  0.168315500021 -0.181550845504 -0.0129796266556  0.203061833978 -0.0839376300573 0.0201103240252  -0.123973377049 0.0421161539853 0.0831994190812  0.10652089864 0.041568480432 0.133020982146  -0.00508088478819 0.00464248098433 0.118765294552  0.0384838804603 0.0542355030775 0.219570666552  0.0556482039392 0.09942726045850001 0.165778696537  0.25 -0.25 0  0.25 -0.17904445884 -0.0421267671166  0.0085972994566 0.139411628246 0.206887423992  -0.0427397117019 0.0734880268574 0.199836358428  0.25 -0.25 0.166666666667  0.177338154858 -0.25 0.209433902167  0.178222204231 -0.25 0.126578397361  0.180748909712 -0.154124230146 0.180074676871  0.118582360446 0.0498475395143 0.233844980597  0.113276541233 0.115120351315 0.208414897323  0.068451166153 0.123325429857 0.09300038218499999  0.08695217221980001 0.18308262527 0.11987875402  0.1366494596 0.0978636816144 0.125807240605  0.0170362386853 0.165571182966 0.116205818951  -0.075325883925 -0.13042730093 -0.120773427188  -0.191016584635 -0.1764793396 -0.0778442546725  -0.102759346366 -0.20253264904 -0.07015967369080001  -0.126150563359 -0.115044787526 -0.0573479756713  -0.138729035854 -0.104583211243 -0.134180948138  -0.147993162274 -0.138949289918 -0.203295826912  -0.180331096053 -0.192031860352 -0.160557568073  -0.194399222732 -0.0846866071224 -0.148938387632  -0.11259970814 -0.078034222126 -0.193649172783  0.0326924659312 -0.122268341482 0.0296003930271  0.0215157996863 -0.180560961366 -0.0757267251611  0.0956164896488 -0.0493310950696 -0.0164182558656  0.112129375339 -0.112067811191 -0.105549775064  0.127802968025 -0.106147237122 -0.0110959038138  -0.0854129120708 -0.015297700651 0.056893799454  -0.0204317308962 -0.0795602425933 0.117458000779  -0.178222204231 0.25 0.126578397361  -0.177947182503 0.25 0.0435581305687  -0.107976816083 0.25 0.0905854563709  -0.157577678561 0.178241759539 0.0969507619739  0.25 -0.25 0.333333333333  0.25 -0.25 0.25  0.175776260788 -0.25 0.294629825204  0.25 -0.175495340629 0.295351832328  0.0932372882962 -0.0430554822087 0.0724518448114  -0.044769000262 -0.00661279587075 0.403999477625  -0.194478780031 -0.0247275307775 0.332954645157  -0.173761367798 -0.0806607827544 0.396263659  -0.137637495995 0.00523930834606 0.315887242556  0.0864742994308 -0.139340251684 0.176064118743  0.105438224971 -0.136641919613 0.253711819649  0.0308670303835 -0.25 -0.136809572586  0.0367561832589 -0.25 -0.219583441074  0.0925811678171 -0.20055809617 -0.19996842742  0.0127155454829 -0.193433105946 -0.225977659225  0.0415658205748 -0.200880005956 0.196522325277  0.0373581312597 -0.119548290968 0.120048768818  -0.0954102815882 -0.25 0.346414074494  -0.101368582479 -0.25 0.251933327382  -0.0374909392175 -0.25 0.286229296012  0.0852289572358 0.109103307128 -0.27055695653  0.07707493752239999 0.127253636718 -0.199824258685  0.128097131848 0.07648140937090001 -0.209757223725  0.154867321253 0.13628205657 -0.212952241302  0.08678253740069999 0.189277544618 -0.274375885725  0.127699971199 0.0803090333939 -0.326344817877  0.0577741526067 0.0601542405784 -0.31936660409  0.0525139421225 0.129102528095 -0.326874881983  0.0251371748745 0.175572559237 -0.261228203773  0.0199144631624 0.0927290171385 -0.265960127115  -0.148952946067 -0.121583275497 -0.374568909407  -0.25 0.177950121638 0.0405701099774  -0.25 0.111295968676 -0.00354384794953  -0.175531774759 0.135734900832 0.0562076568604  -0.178730383515 0.191659659147 -0.00562386959791  -0.0244714934379 -0.108516678214 -0.387223660946  -0.09279609471560001 -0.170035287738 -0.445968538523  -0.0281062982976 -0.0
[...]
<PointData  Vectors="f_68"> 
<DataArray  type="Float64"  Name="f_68"  NumberOfComponents="3" format="ascii">3.5048591177887738e-05 7.7663781354107899e-07 -1.9496436367464454e-02  -1.0299539167583565e-05 1.7025373684562058e-05 -1.9347938375954225e-02  -1.8194680743319871e-05 -5.0561943610356890e-05 -1.8488918899744231e-02  -6.7842965120018550e-05 2.7221760672793599e-05 -1.7312128079465260e-02  -5.0641863788009549e-05 -6.1038292049570062e-06 -1.9481212416047670e-02  6.3578103875107431e-06 8.1200888419793592e-05 -1.8004096151304685e-02  -1.2937426604140539e-05 2.6039748206340535e-05 -1.9535785760092145e-02  2.2335748137927269e-05 2.7190117551218334e-05 -1.8187195589539639e-02  -2.7201058593503309e-05 -3.1636501120767075e-05 -1.9415632413037995e-02  -5.2743637937915533e-05 8.8423498730170907e-05 -1.6162007457723799e-02  -1.0449469405721469e-05 3.0377248837762587e-05 -1.9706123966271753e-02  -8.0420835906991855e-06 3.2677201539985309e-06 -1.9563806263933708e-02  9.3255806400831195e-06 3.1369468664285038e-05 -1.9320182772996863e-02  -4.8017235110349269e-06 3.6268537013366656e-05 -1.9439100484047601e-02  4.2953546559070314e-05 4.4845931436784535e-05 -1.8807341009477715e-02  1.3664252870090615e-05 7.5307363023054582e-06 -1.9065561724488842e-02  4.4454018167166039e-05 -7.3424583866457026e-06 -1.8102689067989990e-02  1.1493543640593864e-05 1.2490891922117934e-05 -1.9511742040524544e-02  1.5329866400640710e-05 -2.4826067388353992e-06 -1.9482286231518590e-02  4.1791690492227347e-05 -6.7608194248439389e-05 -1.9477648034905679e-02  7.6453818588317839e-05 -2.1142593693059702e-05 -1.8814169376836710e-02  1.6747657793835099e-05 1.5358735206997344e-05 -1.8973359470866823e-02  3.1007789206730617e-05 1.8785705495843718e-05 -1.9398752639804995e-02  1.1113610538868472e-05 4.3351544671559129e-05 -1.9682157275876088e-02  -9.0828740941254144e-05 -3.1663504312565122e-05 -1.8957241047856302e-02  1.1180815687932904e-04 -9.1168333666817583e-05 -1.9019211100646482e-02  7.6220139387397551e-05 -9.5187042440697151e-05 -1.8507035093617619e-02  -3.3592972777753457e-05 -1.9450091676513974e-05 -1.7188672085837981e-02  9.0126439181175175e-06 -1.2040072861309393e-04 -1.8720712309961113e-02  -1.8211975874569442e-05 -1.8102047019144966e-05 -1.9303935832226882e-02  -4.1687460481865444e-05 -5.0558013242891504e-05 -1.8818950971037567e-02  -1.4677641823120125e-05 -6.8244316121391792e-05 -1.8897384622643443e-02  -7.7717841201996252e-06 1.7618671255848543e-05 -1.9512777962426422e-02  -3.9267721279360242e-05 7.9282343187277063e-06 -1.8818706577955983e-02  -4.3478704376861701e-05 -1.0301134427910835e-05 -1.8891140096568317e-02  -2.1368065737467173e-05 1.8360980745584944e-05 -1.9120932046914396e-02  -1.0656586872841628e-05 3.3757297517569963e-05 -1.9290258214420972e-02  2.9284480482555828e-05 -5.6118536290196442e-06 5.1389101083964067e-05  8.1327078126758476e-06 3.6892130495294892e-06 9.1426473263965305e-05  -1.1841124876441397e-08 1.3368782014685682e-05 6.5817356048624445e-05  5.0794460914954902e-06 1.8166557768657206e-06 3.3989555991207897e-05  -5.2176550482512292e-05 6.0875528070220373e-05 -1.7953184023255190e-02  4.9779624566449034e-05 5.4547652895932886e-05 -1.9192354110246342e-02  8.1999322333073497e-06 2.8842958859967032e-05 -1.9684393697710124e-02  -3.1057975613018681e-05 -1.3447382382070298e-05 -1.8799975494054537e-02  -1.3669923867784845e-08 -2.3496922429054763e-05 -1.8023136421448999e-02  -3.3508979510230424e-05 9.5618793748416880e-05 -1.9431069226716665e-02  -3.4219470453666619e-04 3.1718942734049063e-04 -1.8302989231142250e-02  -5.9816058149415538e-05 2.9891290645939265e-04 -1.8855347559434257e-02  -1.0261358407765477e-04 8.1589771682225235e-05 -1.8092016251977719e-02  -1.6783724212514068e-04 2.8223290777402245e-04 -1.8778014150156803e-02  -3.8503093232735951e-05 3.0191027975568486e-05 -1.9373464589088115e-02  -1.1827633341090153e-04 1.4461213906700944e-04 -1.8868365802391839e-02  -3.8040533920471679e-05 6.8422454429767948e-05 -1.7615200108683057e-02  -3.9417805018698016e-06 6.0609151348547968e-05 -1.9031367504407242e-02  -5.0415762709346314e-05 4.1868457494290938e-05 -1.8488854004474291e-02  1.7432149871631522e-04 2.8024906037029063e-04 -1.3203586854288046e-02  -3.3310546212312154e-05 2.8561425712670651e-05 -1.7218196117186529e-02  -9.5179173463388250e-06 1.0018568902549283e-04 -1.9388201617173258e-02  -7.7377859305890443e-05 4.6630839082295953e-05 -1.9192116770901924e-02  -2.2073764304519322e-05 3.5827241026520304e-05 -1.9450088604841920e-02  -3.4527427533401019e-05 1.8630395734787976e-05 -1.9297966555615345e-02  4.1783765505478232e-06 1.9163152621230232e-05 -1.9076404224366402e-02  -2.5182860573355792e-05 1.7322312465188395e-05 -1.9713528739896530e-02  -1.4480583129306877e-06 -3.1651648089418676e-07 -2.7032629689238147e-06  2.6850949012429109e-04 2.9053837046944647e-05 -1.2459331389383042e-02  -9.2384246559509099e-05 -2.3030887526101436e-04 -1.4632253656032273e-02  -8.5013925081574976e-05 7.2309479783829963e-05 -1.3963623500835312e-02  -3.0004638815453643e-05 5.6306538335968244e-05 -1.9290151483232997e-02  -7.5168293960322429e-05 1.2968439526587162e-05 -1.8813491071715698e-02  -5.4206563221442662e-07 6.2561160618661653e-08 -2.3376411155018544e-06  3.0527907542492432e-07 5.5514831874188072e-07 -3.0700094291590246e-06  -1.2617656511835258e-05 1.4582060669636914e-05 -1.9765622397366619e-02  -3.6729100912360697e-06 -6.4512773637594064e-07 -1.1349261414949316e-05  -2.5813066286228594e-06 4.6352235179734117e-06 -4.5982729861200082e-06  6.5977279676340523e-06 2.6910654019987536e-06 -1.5741995846012975e-06  2.7611824566464391e-05 -1.8803500368999522e-04 -1.0707050157351468e-02  1.2050968590588899e-07 2.7184035869366578e-07 -1.3867673980886283e-06  -6.6506496217966951e-07 -5.3242434636912901e-07 -2.5104080326704787e-06  -5.2694166921701201e-07 2.1237365231921832e-07 -2.6476743224354256e-06  -7.0191580003295289e-05 5.5947663327339981e-05 -1.4585399002135672e-02  -9.3420318005226776e-05 -2.0485076852670774e-05 -1.8312764422489546e-02  8.6347445224935992e-06 7.8134983395218323e-06 -1.9705079075602951e-02  4.3257396018972087e-05 -4.7575319095450117e-06 -1.8968897034327203e-02  -2.4377738773259870e-05 -6.6299041833420690e-05 -1.8431106761014979e-02  4.2970948482167159e-05 -1.8079897546909791e-04 -1.4784978581899951e-02  2.7781853974230093e-05 -1.9594384718648725e-05 -1.9232732151824514e-02  3.4805057104660677e-05 -1.6316234900553054e-04 -1.8809511242747316e-02  -4.2909300039256073e-05 -1.2277838403786480e-04 -1.8102459453240884e-02  -1.5996230492668336e-04 1.1576974596905024e-05 -1.3003326311472925e-02  7.8159947135553575e-05 1.7119680260123504e-04 -1.7260446207931289e-02  -1.9924550207149857e-04 1.6999919119382005e-04 -1.5944147780591836e-02  1.6050361770162628e-04 2.3336367079747830e-04 -1.7502039171091020e-02  1.7790568016526854e-05 -6.0725148831912471e-06 -1.9103015156098069e-02  -1.1505856506937037e-04 1.5098596676089212e-04 -1.5490730860044131e-02  -1.5067277611825255e-05 -4.3711094146501705e-04 -1.4596090766083770e-02  1.0360867206601000e-05 1.9740626285141310e-06 -1.7276695319083019e-02  1.4630715804323988e-04 2.6285637410050454e-04 -1.4444439325875918e-02  9.7109119053579527e-06 5.7388462312615057e-05 -1.8868750159588700e-02  3.0233028580669027e-05 2.1259820394667299e-04 -1.5673441645803518e-02  2.0369195485664336e-05 1.5981094437650929e-04 -1.8810600253527533e-02  6.8515913476547731e-05 1.1993072030151823e-04 -1.3998366838177612e-02  4.5381281065539527e-05 3.0789030668276539e-05 -1.9067815235148878e-02  3.2968776537829299e-05 2.7604223803806300e-05 -1.8624848162686853e-02  1.9651603131855798e-05 -2.2329964086021789e-05 -1.7663542809239204e-02  -3.6466112948043811e-06 4.4503264432414107e-05 -1.6712093447990170e-02  -9.9784758767386377e-06 -8.0043047784841038e-06 -1.1547694817654841e-05  2.9086174353395561e-05 2.0388985333515459e-05 -1.9375967481340583e-02  -4.0343957673163163e-06 5.2046283557877438e-05 -1.9419034306413070e-02  1.7636603585078079e-05 8.0157125593196838e-05 -1.9217656093977943e-02  3.3008659861568808e-05 6.7785326496523396e-05 -1.8763940269079970e-02  4.7130314935057760e-05 5.4111557103680964e-06 -1.6149286649564033e-02  8.6568568877399424e-07 8.4841153206167131e-07 5.4157422861285325e-07  -8.8035823672000078e-05 6.7489177581193271e-05 -1.5607293094816685e-02  -1.5219591951845437e-04 2.0363065765788608e-04 -1.2307771658539367e-02  4.5401749516989020e-04 -2.5656026896551097e-04 -1.4117058194269883e-02  5.5718676405510234e-05 -4.0517391250246562e-05 -1.9314357240994597e-02  -9.2490975773934828e-05 -6.9051479010585144e-05 -1.6958975956230384e-02  4.8551822843687755e-05 -2.6359512274750518e-04 -1.6791875599488297e-02  -5.7040273731665992e-05 1.5768881658317647e-04 -1.8082757811254180e-02  -5.4952210688789181e-05 9.5469965104440541e-05 -1.8897018726713777e-02  -1.6295717576608606e-05 -3.0411199043077600e-05 -1.4031471464893124e-02  -1.4895501928562332e-04 9.3847223968327389e-05 -1.5886985423629089e-02  -2.5584675143017048e-04 1.5955043173611900e-04 -1.4753714090703758e-02  -8.1654998797868957e-05 2.0934624007930118e-04 -1.8411002528360261e-02  1.6098870395469706e-04 6.6867809725987889e-04 -1.4007680946255111e-02  -9.5241768299766348e-06 3.4726470020373875e-04 -1.6596448128050573e-02  -1.8602630313696933e-04 8.1985105945574425e-05 -1.7880779037551291e-02  -1.0764510156005357e-04 2.9621723657893744e-05 -1.7118572012367800e-02  2.6848082201076006e-06 -4.4583794791462209e-07 -5.5751649089005161e-06  -2.1085572415124133e-07 -6.4555868340359707e-07 -4.2864213041034443e-06  -4.5751122108230770e-04 3.0433793878622656e-04 -1.4559137483940937e-02  2.3961636096975377e-04 -1.6693820241502253e-04 -1.2376915086544590e-02  7.8301636056749542e-05 3.7529670219374119e-05 -1.8553103578080484e-02  -1.1759611434333840e-06 2.5648892385405726e-05 -1.8430386127630771e-02  -2.9340758116048811e-06 4.5001636595189679e-06 -1.9453569067621565e-02  -2.0853676653495620e-05 9.6938496752531368e-06 -1.9423313739358440e-02  3.0207633024907965e-05 -4.0942883903963825e-05 -1.9068522093522101e-02  -1.8694008411905365e-06 5.5917428369933568e-07 -3.1863442686704024e-06  -1.1146170924928227e-06 4.9013726270475453e-07 -5.3332499854952352e-06  -4.3105214134440616e-05 -3.2113389980370685e-05 -1.6850422733960434e-02  2.5945035910880291e-05 2.3684769830074422e-05 -1.8962176052140307e-02  1.6648671671309517e-06 -1.0633198589018590e-07 -9.2029979896078148e-06  -3.3913970042161844e-06 1.4256162446467414e-06 -1.1949643840067122e-05  -1.9380013553583265e-06 2.1606552933035176e-06 -7.0527739098424833e-06  -9.0080294455347818e-05 1.3332636162422009e-04 -1.5146405715021186e-02  -4.6059246124976479e-05 1.2159423704693801e-05 -1.8321285829726343e-02  -1.0737376595654244e-05 -5.4553699828077898e-05 -1.6712592361209564e-02  -3.6937698287587565e-05 2.9063298835247583e-05 -1.8737860400143292e-02  5.5165152184873205e-06 -1.0254561588954883e-04 -1.5640512086616095e-02  -5.0880532971482832e-05 -1.5174762896039417e-04 -1.4857228154142015e-02  1.7492795795981077e-04 1.2299376085949664e-05 -1.4838419933448706e-02  -1.0621911694799879e-05 5.9793732123149996e-05 -1.7575832044373976e-02  -2.9340555701437793e-04 -2.5721102796022206e-04 -1.4478734578281078e-02  1.1964064136976806e-04 -1.7417474872495498e-04 -1.2230032149817211e-02  -8.8128424018443641e-05 -8.7825658721776432e-05 -1.6758687054089162e-02  1.5365553249631576e-05 1.0506763636793430e-04 -1.5398742686597411e-02  8.5568232214401792e-05 -2.4628315315774618e-05 -1.6337022969141492e-02  7.8109349897895292e-05 1.8511348657512088e-05 -1.2527855073923054e-02  1.6583914078638939e-05 -2.3622512379721058e-05 -1.5385954318316939e-02  6.5082990630815319e-05 -7.9756758122673952e-06 -1.8151278570944483e-02  -3.7575209527445773e-05 -1.9278230311387726e-05 -1.8504100301444257e-02  -6.5964695509766473e-05 7.2778958820000285e-05 -1.2204784819647728e-02  4.2538839552816012e-05 -1.6661984448531420e-05 -1.8328117647762723e-02  6.4949006057202302e-06 -4.4065889661068481e-05 -1.7288737838057441e-02  -1.5855044327194299e-05 3.7449592525282088e-05 -1.7796493519497275e-02  2.8237121241611874e-05 -7.6252892854789299e-06 -1.9279106770758107e-02  -2.2864478479586684e-05 2.3287318308768909e-05 -1.9551888997328289e-02  -3.0817709340607446e-07 -4.2233386051734292e-07 -3.1478935094456643e-06  1.7270186332327445e-07 -1.8008459726674366e-06 -3.0071411585184062e-06  1.9973880231565541e-06 -1.8174657783577638e-06 -1.9375138895186764e-06  2.1121815939007917e-05 3.0319309980427512e-05 -1.3509566062836074e-02  -1.4046607262196670e-05 8.7763787362610745e-06 -4.4927826416781069e-05  -6.9351978803844005e-06 6.0358533720751453e-06 -2.1072032297560687e-05  -1.5319177832786965e-05 6.6883450976582814e-06 -2.2602821804312167e-05  -7.2097490160237581e-06 1.8047430652379390e-05 -2.8085556863547712e-05  -5.4372760261770544e-05 4.5578928209963613e-05 -1.8712324575308952e-02  8.0650597359388526e-05 2.9822088793436132e-05 -1.9152514449976388e-02  5.3976844822130241e-05 -6.9299395552581698e-05 -1.1994337886585566e-02  -5.2218801680118612e-05 3.6772978506052913e-04 -1.5369705500065866e-02  2.2203539137319764e-04 2.1221443175619561e-06 -1.7119156219181541e-02  -5.2578202442509166e-06 1.0092095143127756e-04 -1.5817593337274467e-02  -1.3354139777816784e-04 2.6337492684862091e-05 -1.7985482538311146e-02  -1.8433014690234236e-07 -5.2371811611107146e-07 -2.9914499736929832e-06  1.3462700883864461e-06 4.5772217747878215e-06 -2.5588622221521379e-06  3.5245898498128115e-04 -3.5185741505809858e-04 -1.3732741912525742e-02  -1.2517073156531144e-04 9.1436549504782141e-05 -9.6164170610795081e-03  -5.7849862979324450e-05 -2.3326167759810028e-05 -1.6776801838230850e-02  -2.3045262273994312e-05 1.0852110283267163e-04 -1.8072975373246099e-02  6.6249791749191410e-06 6.2678091103565345e-06 2.4143071137765996e-07  -5.8751724751787232e-07 -3.6595833615133088e-07 -2.4933724651189227e-06  -5.3228753464245605e-06 -1.8311121644961275e-06 -4.1024590014941649e-06  6.1734236492364661e-05 -9.8313185351933389e-06 -1.8561782430955149e-02  4.0815717621816427e-06 -5.3094949283187170e-05 -1.8560532360013753e-02  4.0404443583516308e-05 7.5787902643397386e-06 -1.7833721935343837e-02  1.4000383481172589e-04 7.7208014172599180e-05 -1.6137113615619987e-02  2.0682993764741344e-05 -2.7525999765506728e-05 -1.5533668095085624e-02  4.1879388433019289e-06 5.6550187372248201e-06 -1.9080052404053305e-02  9.0765491285460294e-06 -1.6820890970159502e-05 -1.9245197298428055e-02  -3.3259473751793025e-05 -3.8584391693711932e-05 -1.6706777418746419e-02  -6.8112913323870351e-05 -4.5780289775730523e-05 -1.7846304513892790e-02  1.3551251954951371e-06 1.1662648420237150e-05 -1.9413409905132597e-02  7.5394742271865097e-05 -1.1425376361310590e-04 -1.6900036261702521e-02  1.1302689515215888e-06 -1.2260028673799632e-06 -2.6829114381639521e-06  -3.5003200748287399e-06 -9.2928162680987900e-07 -2.5317769116797709e-06  2.6420518093792165e-04 -3.3850017784655100e-04 -1.3411384739932445e-02  -2.5227813165885579e-04 -3.1375016761013818e-05 -1.3296035031587019e-02  4.7012387001820598e-06 2.2783960284189047e-04 -1.7547945961814970e-02  1.7621238094329326e-06 1.8090591465217207e-04 -1.6960341513668493e-02  4.0622921894557890e-05 1.3201301201565347e-04 -1.9112553570466904e-02  -1.8644073269936253e-06 -3.4636984100150497e-07 -3.8360730625566941e-06  -3.5292339873187125e-07 2.4348366469883602e-07 -1.4558167421596664e-06  6.2371148206059173e-06 -1.2120982649210196e-04 -1.8921600053425788e-02  1.0808263821261329e-04 1.1931982573561246e-05 -1.4078769486528907e-02  -2.9302997365209232e-05 -8.0919654869825958e-05 -1.2779050696334142e-02  -5.8536799897825700e-05 1.2641591766552276e-04 -1.7081550916574890e-02  1.6755844521638834e-05 1.5955128365351425e-05 -1.9410470866334351e-02  1.3075551645600128e-06 2.2585609412262507e-07 -7.5304507536426106e-06  8.9380716289234461e-08 6.6313592345526224e-07 -5.7746406275552782e-06  -3.2140328534443807e-07 -8.4843007790355842e-08 -2.9868897668153307e-06  7.0911281595767686e-05 3.1920118774050091e-06 -1.5604858384014693e-02  2.6004160302658809e-05 1.5262674495660239e-05 -1.9156244920864752e-02  1.3820703530045005e-05 2.1983078677739860e-05 -1.9434253120413577e-02  -6.8104909451996193e-06 6.2915074826425478e-06 -1.6804748973482164e-02  4.5101361712822706e-05 1.3414122984980578e-05 -1.9100438189609156e-02  -2.6738087766476728e-05 -2.5612177820416084e-05 -1.9246068571392244e-02  8.1109607212501145e-06 3.5466407580979199e-06 -1.8538515542694818e-02  -9.5866560695288821e-08 -7.1928558390715476e-07 -3.6823029110604552e-06  -1.2457566454058516e-06 1.8330295538131603e-07 -3.1342326854841935e-06  -9.6255385796717793e-05 -6.7721635505294667e-05 -1.4054560727580143e-02  2.1566991579310269e-05 4.7036847859451730e-05 -1.3942725746840681e-02  1.3094185918125769e-04 -4.9114863444941967e-05 -1.8381467481243561e-02  5.8150368545425864e-05 -2.5648526259438075e-05 -1.8368978757352755e-02  -8.1131234867582075e-09 -1.5886127149672406e-05 -1.9068580987052580e-02  4.5057024083749405e-05 -6.7079087861208691e-05 -1.7041823165462766e-02  5.0749766902149720e-05 -9.6476950920811009e-05 -1.6676603620287896e-02  -2.3994753595267018e-05 5.5522703489571353e-05 -1.6678745943477867e-02  2.1479000697533201e-04 -1.0135905244302546e-04 -1.7295191231182325e-02  7.0062262731024715e-05 1.0775012785693358e-05 -1.9354394555396278e-02  1.6858671105887885e-04 8.5568077309953379e-05 -1.9679239732916937e-02  1.0364692772594846e-04 1.7101938633446241e-05 -1.7776572699853697e-02  1.4053995770787609e-06 4.2436795727811318e-06 -1.9334766288988524e-02  1.1306275731548659e-04 -5.2993221256411331e-05 -1.8963740886081788e-02  4.6594290138921712e-05 -7.8974263220488869e-05 -1.9252563817748116e-02  2.0498817738862955e-05 -2.5830494923075069e-05 -1.9410414592233506e-02  5.9649184326524528e-05 3.5025907564856578e-05 -1.7509183037147151e-02  -3.7692571387339662e-05 2.8477662470948492e-05 -1.7506293267313219e-02  7.7862444012945681e-05 -5.4011788811112181e-05 -1.1176653446079607e-02  -6.1660120465876738e-06 -3.8176926321936910e-05 -1.6631799158228305e-02  -3.1776980290438473e-05 -9.2472105590587223e-05 -1.8920463689950422e-02  -1.3489470485621028e-04 -1.3625604819983699e-04 -1.7454185831482612e-02  4.7857174881608894e-06 1.7030472643277358e-04 -1.6347835243454678e-02  -1.2973635112272964e-04 1.7257045503524303e-05 -1.5469736257475306e-02  -5.9741140692647510e-05 -7.1566996219794523e-05 -1.7912431067550132e-02  -7.1207775098842163e-05 -6.8669307044350763e-05 -1.3489869482781863e-02  -1.5249111090202055e-04 8.4240995045592991e-04 -1.3361798340957560e-02  -5.2964854352335422e-04 6.1511021622799806e-04 -1.2636766923335008e-02  -3.4517790041006625e-06 -1.4635727251822317e-04 -1.6491223364466137e-02  -5.4720781861757658e-04 7.6861615390103771e-04 -1.6894510752149754e-02  1.0925580059355931e-04 2.2566896363154521e-04 -1.8148292134066015e-02  9.9577937599460364e-05 2.2075007512239474e-04 -1.6794570653692376e-02  1.2804923199453526e-06 7.2062989516289243e-07 -3.4570605297701120e-06  2.3049442652909589e-06 -5.6946614457517888e-06 -3.7954196149231138e-06  -1.0783665829200889e-06 4.6960518441744736e-06 -2.3072029936069345e-06  1.1295156782354123e-04 -7.9812381936999132e-05 -1.4939525154297726e-02  -9.9039265731417351e-05 1.6848289102950864e-05 -1.8256899187883525e-02  -8.3673234348655780e-05 8.1452086951071782e-05 -1.6590398926426980e-02  -1.2577750135323785e-04 2.1115813878375833e-04 -1.5531730503587015e-02  1.6864847335250658e-04 3.1893183658341501e-04 -1.4551203411304753e-02  -1.1194162795251619e-04 -8.9043504075240039e-05 -1.8155644747271927e-02  -1.2520953801506605e-04 -1.6463036483957272e-04 -1.7400427362715007e-02  9.1660178178608031e-05 -1.0308339551006981e-04 -1.4326597918798090e-02  -9.4937903162409216e-05 -8.4277082549948315e-05 -1.5029329890910126e-02  1.6008266534084355e-06 3.0086131057631778e-06 -7.3675300956370338e-06  -4.9218974624258811e-07 2.8625917595856633e-06 -6.8506595376362788e-06  2.5114392730211785e-05 3.8811071547366772e-04 -1.6629953640592970e-02  3.0679785854181153e-08 2.7097390923996725e-06 -1