<?xml version="1.0"?>
<VTKFile type="UnstructuredGrid"  version="0.1"  >
<UnstructuredGrid>
<Piece  NumberOfPoints="857" NumberOfCells="3763">
<Points>
<DataArray  type="Float64"  NumberOfComponents="3"  format="ascii">-0.0182597916573 0.126128911972 -0.119588643312  -0.0077641364187 0.0512270443141 -0.07050477713349999  -0.0237180162221 0.16240182519 -0.053058128804  -0.107877351344 0.105669431388 -0.0502408407629  -0.0444478429854 0.116080775857 -0.00235075876117  0.0393674038351 0.112876079977 -0.0491501875222  0.0248903874308 0.0489483103156 0.000152088920004  0.0314915925264 0.114928804338 0.0218031276017  -0.0657326281071 0.0685198307037 0.0497140102088  -0.0355357266963 0.164656624198 0.0508319064975  -0.010538729839 -0.0422629192472 -0.208358153701  -0.0239527057856 0.0135364839807 -0.242119863629  -0.0194642152637 -0.0775559768081 -0.263431429863  -0.08492307364939999 -0.0108216870576 -0.280446648598  -0.08293507993220001 -0.0361198186874 -0.159778758883  -0.0240796487778 -0.0824203491211 -0.148982465267  0.0430508553982 -0.121076337993 -0.234084427357  0.0307756774127 0.0324950888753 -0.198437720537  0.00352357281372 -0.00433266581967 -0.144715368748  -0.0456651262939 0.08372022956609999 0.342343091965  -0.116630032659 0.0117083769292 0.386158525944  -0.08223126828669999 0.0577075146139 0.289406776428  -0.0511222109199 0.00205342215486 0.300772219896  -0.0125984866172 0.0267426930368 0.351842552423  0.0303636882454 0.0561947338283 0.391145974398  -0.0524924062192 0.0543583929539 0.40361738205  -0.07944945245979999 0.130002260208 0.441037595272  -0.000730989675503 0.119443200529 0.385622620583  -0.078488714993 0.137875169516 0.332541137934  0.0142801422626 0.110509291291 0.27100610733  0.0224165506661 0.08303219079970001 0.331783413887  -0.0170432701707 0.161798536777 0.30022162199  0.000811119796708 -0.0515509881079 -0.08419398218390001  0.0888616070151 -0.015075173229 -0.0776951387525  -0.0989535748959 -0.0518730916083 -0.08125374466180001  -0.0433920919895 -0.09785594791170001 0.0106235472485  -0.0488061010838 0.0295096840709 -0.0131453983486  -0.25 0.25 0.5  -0.166666666667 0.25 0.5  -0.25 0.195066730511 0.445658150344  -0.19506166517 0.25 0.445542865294  -0.0213422998786 -0.126349791884 -0.045622177422  -0.117952652276 0.0158270020038 -0.16616243124  -0.0531469397247 0.0490713231266 -0.13630309701  0.0358348339796 -0.131537660956 -0.134171053767  0.0583617314696 -0.115307979286 -0.0462360456586  0.010585160926 -0.0606908276677 0.314250290394  0.078067921102 -0.133790805936 0.331458956003  0.0206208750606 -0.104583717883 0.36723652482  0.0300164371729 -0.13569638133 0.270959883928  0.0797956883907 -0.07311873137949999 0.388136893511  0.0291880238801 -0.0850581228733 0.220644980669  0.0788302049041 -0.07555303722620001 0.284453928471  -0.0465739220381 -0.108428947628 0.305151432753  -0.056692365557 -0.0812899768353 0.234353885055  0.10282895714 0.0630551427603 -0.0452189296484  0.178613707423 0.153893724084 -0.0703043565154  0.0750898644328 0.130835875869 -0.116260357201  0.0179002508521 -0.0400723591447 0.396018892527  0.07961820065980001 -0.020668130368 0.232235535979  -0.00726175494492 -0.022667773068 0.242156982422  0.0524490773678 0.0171752162278 0.310696065426  0.0103002395481 0.0813155695796 0.107229083776  0.00225681974553 -0.008687185123560001 0.0457225777209  0.177950121638 0.25 0.0405701099774  0.151375159621 0.202163234353 -0.00268407491967  0.13042794168 0.172564610839 0.0599601529539  0.184557154775 0.16295710206 -0.00737970136106  0.0827306732535 0.011830884032 0.0299163535237  0.106673434377 0.0676268041134 0.0663062110543  0.25 0.25 0  0.25 0.177947182503 0.0435581305687  0.0251978598535 -0.0201241951436 -0.0233656335622  -0.25 -0.25 0.25  -0.175495340629 -0.25 0.295351832328  -0.25 -0.175776260788 0.294629825204  -0.164853364229 -0.189889326692 0.246240898967  0.111295968676 0.25 -0.00354384794953  0.0417815256417 0.25 0.0264120515999  0.0577150444892 0.25 -0.0418173710713  0.035034801811 0.196921139956 -0.0497792549431  -0.115254960954 0.0352221727371 -0.0357825122774  0.0360979661345 0.0743419006467 -0.130612716079  0.08110298216340001 0.0143552683294 -0.135737240314  0.0281950440258 0.110801942647 -0.38559025526  -0.000352636008756 0.154027625918 -0.45018479228  0.0220217909664 0.07910815626379999 -0.445265561342  -0.041934799403 0.09297795593740001 -0.440330862999  -0.115356497467 0.128115877509 0.0303980205208  -0.08144567906859999 0.192924261093 -0.0396481454372  -0.0503155887127 -0.140062868595 0.370642662048  0.0181560348719 -0.191118896008 0.319997102022  -0.09442232549189999 -0.0766885429621 0.347179293633  -0.10306725651 -0.0245223585516 0.261891931295  -0.0371639840305 -0.192689821124 0.258922994137  -0.08778057992460001 -0.193450272083 0.293951839209  -0.116932563484 -0.137108251452 0.278956532478  -0.0434515699744 -0.19969072938 0.340430229902  -0.016621209681 -0.143479332328 0.208528921008  -0.0799133181572 -0.177766740322 0.206858798862  -0.0340202823281 -0.07231882214550001 0.405357718468  -0.153045728803 -0.0703692808747 0.28540495038  -0.0647673308849 -0.069349065423 -0.297796696424  -0.0468406006694 -0.118580199778 -0.331259429455  -0.0636249184608 -0.122360698879 -0.235275790095  -0.137311711907 -0.115820750594 -0.279358655214  -0.25 -0.25 0.333333333333  -0.00222280388698 -0.0275516584516 -0.327156513929  0.0233143884689 -0.124395690858 -0.330935031176  -0.00544846989214 -0.0444226972759 -0.392852008343  -0.07202984392639999 -0.0450558848679 -0.379192590714  -0.128861442208 -0.0482712239027 -0.325591087341  -0.0319190612757 0.25 0.27473160228  0.0259018652141 0.196524605155 0.343851953745  -0.0424101948738 0.196461260319 0.324036180973  -0.08801463991400001 0.193724930286 0.280150324106  -0.051391992718 0.129726842046 0.244459152222  0.0793330296874 0.131078347564 0.273738384247  0.0304427426308 0.197590425611 0.258007407188  0.139736711979 -0.103549621999 0.308288753033  0.117407329381 -0.00031748006586 0.284001767635  0.17845864594 0.0137020656839 0.2717012465  0.133446916938 -0.07468281686309999 0.252671837807  0.193237304688 0.0103836003691 0.32706490159  0.108656100929 -0.016409387812 0.370573759079  0.195593327284 -0.0705924406648 0.374003827572  0.204297035933 -0.0882691517472 0.283604085445  0.15987212956 -0.0232784096152 0.211559042335  0.103109702468 -0.0715631917119 0.185957938433  0.25 -0.177950121638 0.0405701099774  0.25 -0.111295968676 -0.00354384794953  0.168315500021 -0.181550845504 -0.0129796266556  0.203061833978 -0.0839376300573 0.0201103240252  -0.123973377049 0.0421161539853 0.0831994190812  0.10652089864 0.041568480432 0.133020982146  -0.00508088478819 0.00464248098433 0.118765294552  0.0384838804603 0.0542355030775 0.219570666552  0.0556482039392 0.09942726045850001 0.165778696537  0.25 -0.25 0  0.25 -0.17904445884 -0.0421267671166  0.0085972994566 0.139411628246 0.206887423992  -0.0427397117019 0.0734880268574 0.199836358428  0.25 -0.25 0.166666666667  0.177338154858 -0.25 0.209433902167  0.178222204231 -0.25 0.126578397361  0.180748909712 -0.154124230146 0.180074676871  0.118582360446 0.0498475395143 0.233844980597  0.113276541233 0.115120351315 0.208414897323  0.068451166153 0.123325429857 0.09300038218499999  0.08695217221980001 0.18308262527 0.11987875402  0.1366494596 0.0978636816144 0.125807240605  0.0170362386853 0.165571182966 0.116205818951  -0.075325883925 -0.13042730093 -0.120773427188  -0.191016584635 -0.1764793396 -0.0778442546725  -0.102759346366 -0.20253264904 -0.07015967369080001  -0.126150563359 -0.115044787526 -0.0573479756713  -0.138729035854 -0.104583211243 -0.134180948138  -0.147993162274 -0.138949289918 -0.203295826912  -0.180331096053 -0.192031860352 -0.160557568073  -0.194399222732 -0.0846866071224 -0.148938387632  -0.11259970814 -0.078034222126 -0.193649172783  0.0326924659312 -0.122268341482 0.0296003930271  0.0215157996863 -0.180560961366 -0.0757267251611  0.0956164896488 -0.0493310950696 -0.0164182558656  0.112129375339 -0.112067811191 -0.105549775064  0.127802968025 -0.106147237122 -0.0110959038138  -0.0854129120708 -0.015297700651 0.056893799454  -0.0204317308962 -0.0795602425933 0.117458000779  -0.178222204231 0.25 0.126578397361  -0.177947182503 0.25 0.0435581305687  -0.107976816083 0.25 0.0905854563709  -0.157577678561 0.178241759539 0.0969507619739  0.25 -0.25 0.333333333333  0.25 -0.25 0.25  0.175776260788 -0.25 0.294629825204  0.25 -0.175495340629 0.295351832328  0.0932372882962 -0.0430554822087 0.0724518448114  -0.044769000262 -0.00661279587075 0.403999477625  -0.194478780031 -0.0247275307775 0.332954645157  -0.173761367798 -0.0806607827544 0.396263659  -0.137637495995 0.00523930834606 0.315887242556  0.0864742994308 -0.139340251684 0.176064118743  0.105438224971 -0.136641919613 0.253711819649  0.0308670303835 -0.25 -0.136809572586  0.0367561832589 -0.25 -0.219583441074  0.0925811678171 -0.20055809617 -0.19996842742  0.0127155454829 -0.193433105946 -0.225977659225  0.0415658205748 -0.200880005956 0.196522325277  0.0373581312597 -0.119548290968 0.120048768818  -0.0954102815882 -0.25 0.346414074494  -0.101368582479 -0.25 0.251933327382  -0.0374909392175 -0.25 0.286229296012  0.0852289572358 0.109103307128 -0.27055695653  0.07707493752239999 0.127253636718 -0.199824258685  0.128097131848 0.07648140937090001 -0.209757223725  0.154867321253 0.13628205657 -0.212952241302  0.08678253740069999 0.189277544618 -0.274375885725  0.127699971199 0.0803090333939 -0.326344817877  0.0577741526067 0.0601542405784 -0.31936660409  0.0525139421225 0.129102528095 -0.326874881983  0.0251371748745 0.175572559237 -0.261228203773  0.0199144631624 0.0927290171385 -0.265960127115  -0.148952946067 -0.121583275497 -0.374568909407  -0.25 0.177950121638 0.0405701099774  -0.25 0.111295968676 -0.00354384794953  -0.175531774759 0.135734900832 0.0562076568604  -0.178730383515 0.191659659147 -0.00562386959791  -0.0244714934379 -0.108516678214 -0.387223660946  -0.09279609471560001 -0.170035287738 -0.445968538523  -0.0281062982976 -0.0
[...]
<PointData  Vectors="f_78"> 
<DataArray  type="Float64"  Name="f_78"  NumberOfComponents="3" format="ascii">-2.2201565976929714e-05 -2.2763459470117541e-05 -4.3801213621152153e-03  1.0398086353246083e-05 1.0984685230171986e-06 -3.5781465659655972e-03  4.2759593329273593e-05 9.5851322788698159e-06 -3.6434523225438230e-03  8.1865915617523576e-05 -4.3795566267586014e-05 -3.4528714407197946e-03  4.3603516143163144e-05 -4.0078220694954443e-05 -4.2539735352617493e-03  -4.5843973969577835e-05 2.0211769628488930e-05 -4.3489762324404402e-03  2.0680257724214483e-05 1.2321646870808301e-05 -4.1987736800948028e-03  3.9706961657244337e-05 1.3331931751196289e-05 -3.7773135995164205e-03  6.4449728379902219e-06 -1.6950811552507669e-05 -3.6014005226909724e-03  -7.6786925348987817e-05 3.0621538227728557e-05 -3.5466803622803394e-03  2.5083142740607205e-06 4.1519668465563346e-05 -3.4905430907140899e-03  -8.0085843656617815e-06 2.1172814890239979e-05 -3.8580017131806602e-03  -2.0408824964643817e-05 3.7352913365728947e-05 -3.9558025868337444e-03  -2.0358649099186731e-05 1.1430841675963864e-05 -4.3549608303511825e-03  1.5136402813014129e-07 9.4663473033557848e-06 -2.7021324223809907e-03  -1.3720930473536115e-05 4.5857708197082939e-05 -3.0334110525426883e-03  2.9316908199543269e-05 3.5552043613591276e-05 -2.9547356908115503e-03  1.1024272418285051e-05 1.7128112745038653e-05 -3.3765600688453129e-03  9.8448825332616997e-06 -2.4323376949212577e-05 -3.3587829977448948e-03  6.6584421995696171e-05 -1.5796350346383603e-04 -4.4458495780203685e-03  -8.6480697107865992e-05 -5.7524155631702662e-05 -3.7332869736237794e-03  -8.7064890248874136e-05 -8.8759783557133072e-05 -3.8464438285760304e-03  -1.7939313499167327e-04 -7.1828663274523525e-05 -3.9176238805848215e-03  -4.1911952140484273e-05 9.6410725328523663e-05 -4.6032416281105003e-03  3.4919167497820698e-06 1.1609066710563590e-05 -3.9910842868585913e-03  1.4856841237063039e-04 -4.4279238456107881e-05 -4.2457852437551543e-03  2.0482831231853014e-04 3.0385728578693878e-05 -3.9968166598379233e-03  -4.1648491526740057e-05 2.1060331683358505e-05 -3.6037780002256183e-03  -2.0318439857401317e-05 1.8731414338136294e-04 -3.6044894469815457e-03  -7.4734103017697596e-05 1.8479083885656803e-04 -4.7376644874085492e-03  5.2469063172175351e-05 3.6771680734747167e-05 -4.0299605596212209e-03  -2.3268108748649975e-04 7.3413810695773530e-05 -3.8935189849273349e-03  1.0228745663592056e-05 9.8095008315669031e-06 -3.8850107481174490e-03  -1.3554851588581999e-05 3.5996056313602543e-05 -3.9879864987367305e-03  4.3083870452677908e-06 5.7463513121998711e-06 -4.2108939000799423e-03  1.7989264843900910e-05 4.6752716790587648e-05 -4.0022693898479032e-03  -7.1510239328667252e-07 2.8375476070322831e-05 -4.0216513744342642e-03  1.0109332514558683e-05 -5.4470397020289769e-06 8.3353939881940566e-06  5.0851443799943599e-06 -5.9834463775166767e-06 1.2868351771783114e-05  1.7963115915763103e-06 8.8014168007955709e-07 1.0803687070137237e-05  2.8623128415141875e-06 -3.8878387722741591e-06 5.5487074618952772e-06  -2.4186409953923705e-05 6.6062488835830734e-05 -4.0861767136779843e-03  -3.4228962553301745e-05 1.8234641755834013e-05 -4.1945326761988156e-03  1.7695547228706154e-06 2.7450735295203061e-05 -4.3805464571557793e-03  3.9037245325177781e-05 -7.8811156558471700e-05 -3.7298526871896043e-03  -3.5348439619104244e-05 -2.9790457733028229e-05 -4.1000609996738211e-03  5.4159085869244022e-05 9.5465047629287160e-05 -3.9166707281248214e-03  -5.3994296340352443e-05 5.8713717714543306e-05 -4.7447529895396998e-03  -9.0215516797700394e-05 -1.1761118080740514e-04 -4.2582504742376577e-03  4.5008383040022620e-05 1.7783686794197592e-04 -3.4336293393449064e-03  7.1125600801828583e-05 -1.6538245322335094e-04 -4.2634825885070849e-03  8.8131968537507144e-06 1.2055886674914906e-05 -3.5824834756666181e-03  2.0556674017919088e-04 -3.0276663513257581e-05 -3.7242949465313485e-03  -4.5585430194678645e-05 -1.8657629004213642e-04 -3.7236917363301131e-03  1.2297608632308778e-05 3.9509352151790534e-05 -3.7414393988431352e-03  -3.5220494474748187e-05 -1.0590652685221411e-05 -4.0066816582695558e-03  -1.9470769144085647e-04 6.1057871042980208e-06 -2.6509788589995096e-03  3.7834380650170317e-05 1.6442275553702112e-05 -4.1367262328174887e-03  -3.4498958067307204e-05 1.1968725799488237e-05 -3.9825594993609676e-03  -8.1584054142541440e-05 -5.0548902425533881e-05 -4.7229042855655408e-03  -2.6554529157464825e-05 -1.9452366388197962e-05 -3.5936487778460090e-03  8.2315732575292556e-05 5.3094400936121546e-05 -3.8762693669763368e-03  4.3617181743308021e-06 1.4282532342167221e-05 -3.9384372946376332e-03  5.5778036639373847e-06 -2.5860096652353567e-06 -4.0131203743166135e-03  3.3570538660797592e-07 -1.1930714608533259e-05 6.6450477215330407e-07  -2.2566771483990754e-04 -1.1194302994095344e-06 -5.6323289735750685e-03  5.1164494225333869e-05 -2.4104333333776009e-04 -3.7744614613345476e-03  -1.9188760594886220e-04 6.4551797201369302e-05 -2.5895905221745381e-03  -4.7952444009194165e-06 1.0991805033692881e-05 -3.8157686416195038e-03  2.0849570012859542e-06 -3.0158643769775638e-05 -3.6337026386500985e-03  1.6446527113012144e-06 3.0437810280389125e-06 -1.8318147047082250e-06  -1.1401832064274562e-05 1.2260417129054830e-06 3.7653835970782847e-07  3.2748289337036052e-05 2.0449363933675093e-05 -4.2145817971306282e-03  -2.2798970791317581e-07 1.7646323388949987e-06 -2.8224343206248919e-07  1.6381131796457939e-06 7.7912938652041793e-06 2.5817255833024576e-06  -2.1271043443945228e-07 -2.6897472820550453e-06 4.8141361826656226e-06  7.5437731503463844e-05 -3.3068804840991165e-04 -2.4728879780393917e-03  -3.5196104103066217e-07 2.5882220660327491e-06 5.4651643079326263e-07  -1.2009772656377906e-06 -3.7556032192918003e-06 1.5971285529696755e-07  4.0725425669301862e-07 1.2106512683068220e-05 3.2591047566081107e-07  -1.9447970590137038e-05 3.1959625551427392e-04 -3.8938667710390661e-03  -5.5419691079512883e-05 -6.0197311962512971e-05 -3.5310707438988647e-03  2.0668981218876552e-05 -1.5658242912286838e-05 -4.1987316266832407e-03  1.7726621387630772e-05 -3.7461690185228433e-05 -3.7878142890364372e-03  5.5176580649445214e-06 -5.2419754000928304e-05 -3.1956381956808741e-03  -1.3763992775268119e-04 -3.9414139460125847e-05 -2.9985790029274811e-03  -1.1211048297009560e-05 -2.6632318160598523e-05 -3.6480676185977967e-03  5.6922019622497117e-05 -7.7831634500428361e-05 -3.9876306353919073e-03  -1.7746279815579770e-04 -3.2143338973725317e-05 -4.2234460277930591e-03  -2.5154751426077919e-05 -2.3989507084863312e-04 -2.9352441306216329e-03  9.2464765243105141e-06 -1.1212563240305947e-04 -3.6339966150018758e-03  -2.6278384017358316e-05 1.6405490886893536e-04 -3.0863708721442355e-03  -1.1185487730659651e-04 -4.5584957947453657e-05 -3.6849633880878798e-03  1.4940597948570589e-04 -1.8718355677788779e-04 -3.6155453197253573e-03  -1.7351866981989969e-04 -5.6624423353347101e-05 -3.1541330797441270e-03  -5.7886076402513630e-05 4.6407728157657486e-05 -2.4052872933377338e-03  1.9956766858686455e-04 -6.9860415380207808e-05 -4.5585746417772053e-03  1.7453024468246144e-04 -1.8122620390483241e-04 -3.9500599519497340e-03  -1.8151794913668624e-05 -3.4626734600331204e-05 -4.0134253467777915e-03  -1.2442831274834089e-05 2.5504089584174865e-04 -3.8222927336873853e-03  -6.9396724932858410e-05 2.5090012434437028e-04 -4.3389939743166137e-03  3.2572376040473844e-05 -9.7724516755995750e-06 -2.5818852685066361e-03  -2.1267763835540589e-05 -5.4650678665309547e-06 -2.7742194985083306e-03  6.7963328007063269e-05 9.3236740418861967e-06 -4.5848569183863982e-03  2.8309961063384158e-05 2.7407348156940384e-05 -3.5486216133422100e-03  -3.7206600860375827e-05 5.3206370905041881e-05 -3.5929053374496689e-03  -6.2753845047085386e-06 -7.6409363123860357e-06 1.6373100635556309e-06  1.7588553020388060e-05 2.3580123822648808e-05 -3.7559255578218727e-03  1.6199797018067333e-05 2.7930166962058425e-05 -4.7324231014587159e-03  2.6962445493811315e-05 4.3044882255878227e-05 -4.1271690701425454e-03  -3.2808840959299217e-06 -6.5704729253105959e-06 -4.2051468618471205e-03  5.2950784231274571e-05 5.9562504006919089e-05 -2.8411194357764254e-03  7.6479611216693743e-07 -3.2579323222873978e-06 5.6056736756184995e-07  3.1792679584898023e-05 3.3205640897070572e-04 -3.8275025860412724e-03  -2.5587403517072024e-04 3.3023603837343851e-04 -4.6293733791317382e-03  4.1513537420828449e-04 -3.7023142075307084e-04 -2.9349910306505755e-03  -2.1406818503472063e-04 8.0889830604632685e-05 -4.4761854624587915e-03  8.6990834267631058e-05 1.0904189863822731e-04 -3.4567864000393041e-03  1.0096352208137788e-05 1.2715523786696674e-04 -4.2143531474609789e-03  4.5555427418271283e-06 -2.2110840974175018e-06 -3.7487814362786118e-03  -3.6447689842637751e-05 -3.2467378190982707e-05 -3.6082892466441454e-03  3.3144580835273765e-05 1.7795516112587084e-05 -2.3641534505876981e-03  1.9320906641040496e-06 8.9315034377229939e-05 -3.4466705194956303e-03  1.9282466758033814e-05 -6.0466350568028749e-05 -3.0128141479576383e-03  6.2508930813284908e-05 7.8789659700548103e-05 -3.8109418128693712e-03  4.4839929617573497e-04 -3.0263432200192879e-05 -3.2631478294682680e-03  2.7614849860830849e-04 -9.6498686085679781e-06 -3.5645611602226433e-03  -6.6412672309296776e-05 -3.8561746409418003e-05 -3.5688993958737118e-03  9.9321012856664348e-05 1.3550310930121994e-05 -2.4356895542435642e-03  -2.3048199029016394e-06 -4.4158603530668462e-06 -5.9098365385816013e-07  3.3316299488657962e-06 2.3119857445016650e-06 -1.4251386055188279e-06  -3.3509327680217402e-04 3.9077545480775575e-04 -4.2252223285487002e-03  1.2264421662009096e-04 -2.5748205149906100e-04 -2.4303922711013657e-03  3.6152290742161644e-05 1.4165680987343739e-05 -4.2370153499134856e-03  6.5592098197668396e-07 -3.4082010120509516e-05 -3.5900722229287732e-03  1.8307152003602131e-05 -7.0409165065928944e-06 -3.8162045479396573e-03  -3.9936294827409087e-05 6.0826330575181558e-05 -4.4104278922500800e-03  -1.8770384268959661e-05 -4.2003598130465361e-05 -3.7848673713453589e-03  7.7076559322873751e-06 -1.1190487559802776e-05 4.6005898705203988e-06  -1.7113262236813821e-05 4.3833353446368912e-07 -2.4727348239949705e-06  3.4418916264688323e-05 -9.3054598048663794e-05 -4.2654958842523807e-03  9.5744001308982243e-05 4.7674106030614923e-05 -3.5855052212013872e-03  1.4999862452934248e-05 -1.3074931209374771e-05 8.7242008651686132e-07  4.8520304811767023e-06 4.6417903706632367e-06 -1.0667722494413435e-06  1.5188354710794176e-07 1.3557586201875399e-05 2.6037989719108879e-06  -1.3190536518377819e-04 1.8304631014629091e-04 -2.3134110313331353e-03  5.8905896917667259e-05 1.5080036982181719e-04 -4.0604424134110242e-03  5.1503608757948840e-05 5.6313363891475993e-06 -2.9071607928504357e-03  -8.6404232743969139e-05 -7.2907498493885359e-06 -4.0803747491517670e-03  -8.8667289358495521e-05 -5.8104772822891556e-05 -3.7082078576205508e-03  1.6392923847453899e-05 -2.2021661008094741e-05 -3.1211902344352727e-03  2.6074219270136954e-05 -3.6940206779833276e-05 -2.5905092324870161e-03  -3.5010600798541916e-06 3.2751051878178706e-05 -3.9722249656725583e-03  1.3059012636782523e-04 4.7997701931179185e-05 -2.2131609644892116e-03  5.4949915903089122e-06 -2.4696821094591457e-05 -4.4802373774210490e-03  -3.7535538719510164e-06 3.5083788933728408e-05 -4.2971989068760780e-03  -1.8735621865737983e-06 -2.8862839402179054e-05 -3.1679570379616788e-03  7.0633756860630131e-05 3.3076781452234532e-05 -4.7332353762556982e-03  3.0388604568270118e-05 1.2611077457885499e-04 -3.6667747499801529e-03  1.7237120734199464e-05 1.2559330941401472e-04 -2.2982696821524087e-03  3.7628379600821181e-05 8.2440797714761018e-05 -3.4088633671301707e-03  -3.1225045807890569e-05 -5.9958778929863343e-05 -3.7728564051983165e-03  -1.1413429400543746e-04 1.2321099934912741e-04 -3.0470011113228126e-03  -4.8401920867170732e-05 -1.1004775719901832e-05 -4.3462068595163540e-03  4.9597815391850251e-05 -7.2397856101786162e-06 -3.2865266682165686e-03  1.5039568617855609e-04 -1.5140861473779588e-05 -4.2004096515927021e-03  4.0823471568133011e-05 -1.7099956337043807e-05 -3.5806936065489667e-03  -1.5630640365869103e-06 7.2664424376029537e-06 -3.8720707877736476e-03  -2.7357280052304991e-07 -1.0597509940633326e-05 -6.5391693038577364e-07  -4.9092424455993621e-07 -9.9535970855100199e-06 3.3134082097437901e-06  9.0726265276761639e-06 2.7531249659094455e-06 1.3713531886342451e-06  -7.2655975186922264e-05 -1.3583923208786866e-04 -2.0742154995031601e-03  1.4710246083936982e-05 -1.2740720693543965e-05 8.3029606822628473e-06  2.6479410126956290e-06 -3.8831333065963845e-06 2.1612212781943240e-07  1.7653119812217429e-06 9.5064879905677359e-06 2.8015668022892923e-06  -1.0260286600793298e-05 -1.0106787141237797e-06 2.4534567737341011e-06  -4.4533872900676012e-05 -1.7201833135361542e-05 -3.7128055512179285e-03  1.5516459747956931e-05 6.7881658269078985e-05 -3.3543246844247756e-03  -5.9078094760208543e-05 8.1241183295216126e-05 -4.0147981862463421e-03  -8.7233378948143816e-05 2.2635906801264240e-04 -3.4085950429877891e-03  1.4069948232308440e-04 -1.8180444942171285e-05 -3.1477718713256511e-03  -9.3357660961571673e-06 2.1363139724905121e-04 -3.5950226645424330e-03  -1.5659069047410342e-04 -2.8228278248308903e-04 -3.5541578450151361e-03  4.2632314996061055e-07 -3.5914517466460689e-08 7.5531714351410001e-07  7.1289163902168123e-07 2.7620923923436888e-06 1.5466556901942132e-06  4.7366062465126625e-05 -9.0289210957892664e-05 -3.4609281439124595e-03  -1.3652320788160380e-04 2.0912168025108047e-04 -2.1223954758114966e-03  -3.9696648065080347e-05 -1.0364242161170999e-04 -4.9487703920083042e-03  9.1454244096409910e-06 2.6990252726741872e-05 -4.0600256335889297e-03  -5.7420150127982166e-07 -4.7396558687600665e-06 4.5429856505437390e-06  -1.4488946226312337e-06 -8.4449047324638353e-06 1.6883948327727152e-07  -3.7295540694613742e-06 1.0110376257369031e-05 5.0190559589629224e-07  8.6505231742286439e-05 -4.0468068492918361e-05 -2.5551992845830635e-03  -7.2558931588651807e-05 -6.9808853443525560e-05 -2.9304384951489046e-03  1.5625577370742996e-05 -4.1142818821957829e-05 -3.7446863108017807e-03  -1.5832553477453949e-05 -8.5914752392385883e-06 -2.4403218230713473e-03  6.0531594202832385e-05 4.9470711017122265e-06 -2.0315643824781976e-03  -3.4636185897796517e-05 -1.2538671340903115e-06 -4.9066199080629504e-03  2.5220708269706362e-05 4.1121590820474870e-06 -4.1147533307058200e-03  7.5046238776913053e-06 2.1923294470904404e-05 -3.4782202714903213e-03  -4.0507280706513772e-06 -9.4966293573274643e-05 -2.1184064952252443e-03  1.3064762407600475e-07 -3.8061395608059441e-07 -4.2706962252063970e-03  1.8198261678397186e-05 1.7113162833590179e-05 -4.2329644950537398e-03  6.9961312555237927e-06 3.6973654698653593e-06 4.4808843941719101e-06  9.5529642914692406e-07 1.5755060769842121e-06 -2.8446685658711505e-07  3.8193028903651634e-04 -1.6360316752230000e-04 -2.2992293634619657e-03  -8.3545677588993094e-05 -6.8419185267139388e-06 -4.2499083995268744e-03  -2.4117962432003305e-05 8.3274304610031469e-05 -3.5241404240290122e-03  3.6456739915989743e-05 1.0933922989001609e-05 -4.0183459869597054e-03  1.0480500499117895e-05 3.4003245785384835e-05 -4.2617927389473230e-03  1.6102716971859051e-06 -2.4603600106107626e-06 -2.1302933532128175e-06  1.6258150007402638e-06 2.6473322456088147e-06 1.8952349467946533e-06  2.9822777482450409e-05 -5.5954243931382810e-05 -3.4391309598365552e-03  5.5158943700587451e-05 7.5173101164995103e-05 -3.1217064821526430e-03  -2.8115766743867356e-05 2.4024396867258846e-05 -3.1482896886451880e-03  -8.4863781954837758e-05 4.4686358935869056e-05 -4.0301749124449964e-03  1.0671093544903843e-05 -1.3332284803577151e-05 -3.8723082387356754e-03  -6.5402901889899993e-07 4.6266178587667826e-06 -3.8218972137962962e-06  4.4229553089642754e-07 9.8656875801026050e-07 -3.1843451316747249e-06  4.0675664201941401e-07 -2.4716172721102661e-06 1.8409713346615808e-06  3.0593507356194786e-05 3.8485757897831355e-05 -4.2581960080389112e-03  1.4849380021596622e-05 2.3701806130752709e-05 -3.9335843568999666e-03  -2.2702341350260756e-06 4.2597936244278928e-05 -4.2533734169919119e-03  -1.7075906517245098e-05 4.8633565460415972e-05 -4.2802845462794389e-03  -9.5657387618022470e-06 -7.0207551207920332e-05 -5.0400912689800717e-03  -7.3153559418605727e-05 -4.5501439792606613e-05 -3.5696768945170107e-03  1.1618380512684077e-05 -3.9961778454786945e-05 -3.5246277928452567e-03  -1.9099992806472880e-06 1.2921744143331851e-05 4.2332667745707068e-06  -2.8665469164598852e-07 -7.4741382784825838e-06 -2.3486493618400234e-06  -1.8108399611440679e-04 1.1616088458342902e-05 -2.9080484585324849e-03  9.7411398103361603e-05 2.3360815911294419e-05 -2.7882062562914426e-03  -9.6908496702004821e-06 5.4609456377550719e-05 -2.1595463883988149e-03  9.2649896607682508e-05 -6.4755443257313408e-05 -3.5034124867046605e-03  -4.3006653518315175e-05 -6.4947646363807340e-05 -3.7748337842445114e-03  -8.0152590268299080e-06 -1.0798509380981724e-04 -3.4308079080556174e-03  1.3022108757489799e-04 -6.1914509380376072e-05 -4.5005520768855263e-03  -1.0954609562656271e-04 1.8607386221195944e-04 -2.6544700593853425e-03  -1.5948881039087005e-04 1.1092635872950061e-04 -2.2181874786949621e-03  2.7027335185092915e-05 4.7759665141145368e-07 -3.7670218095322019e-03  3.8267150111582125e-05 4.9386981915961996e-05 -4.6690689178598282e-03  8.4232410679554087e-05 -8.1357907743674309e-06 -4.0136866815683007e-03  -9.9644636391776922e-06 2.4200601047322277e-05 -3.5177324998684582e-03  8.5444180662973094e-06 -4.3047153260662424e-05 -3.9905482846802178e-03  2.6351767900077427e-05 -5.6083780689113878e-05 -4.4096004055295904e-03  2.0597843603571262e-05 1.6038775914710366e-05 -4.2797235605660077e-03  -1.2455706025022693e-05 -5.0900930191413842e-06 -3.9146780241098604e-03  -5.1854845997577976e-05 -1.0735885430586204e-05 -4.0859912801139925e-03  9.3576037943696714e-05 2.7686016192418651e-05 -2.9643381842792654e-03  7.8487504328767979e-05 1.4267585460856042e-05 -3.8541714051393392e-03  -4.9901557136836993e-05 -1.1069491421577632e-04 -4.3569051408309262e-03  -5.4413045599870772e-05 -1.2667089717119200e-04 -4.4632816605771125e-03  -1.0915082194189710e-04 -5.5884261474866887e-05 -5.0188237287281650e-03  -7.2638597534441704e-05 6.8359636464859481e-05 -2.5960171373200437e-03  4.6633111544461695e-05 -6.9226755874919884e-05 -4.1013178319479161e-03  -6.3466804582006602e-05 -9.9122139539559558e-05 -2.9427885408237421e-03  1.0170461710565840e-05 9.5093534027632884e-05 -4.1639173014248266e-03  -3.3901742133672075e-05 1.4860040400644671e-04 -1.6845994616986077e-03  9.2799954272684056e-05 -2.6027212660604127e-04 -4.1651056666994844e-03  4.0112876986707780e-05 1.4816725982205907e-04 -2.8390777057047969e-03  -5.9786144732668131e-05 7.5679307971429502e-06 -3.5572811748001295e-03  -1.1031763961310192e-04 2.9390980254684913e-05 -3.4752517864668556e-03  1.6279455546661065e-06 -6.5820639572086857e-06 -1.5521798896511309e-06  -8.7834043431781285e-07 -8.7688217328148663e-06 -3.2224266497500124e-06  2.4803161682178297e-07 1.3367255297532274e-05 1.2630827461750814e-06  2.4720821670138113e-04 -1.7307734219657538e-04 -4.0932106960876761e-03  -1.0357140797227922e-04 -7.6248942030356227e-06 -3.2233431648394564e-03  8.6337991016542128e-05 -1.2322559853991578e-05 -4.3822449689528958e-03  -1.1647200471054416e-04 -1.0994479293885451e-04 -3.7265150222603972e-03  -4.0385054134635308e-04 -7.1238616733443257e-05 -4.3060247316342223e-03  4.1752242148046002e-05 -9.4508830111548440e-05 -4.1174354757604909e-03  8.2993342069241364e-05 1.1226044276274011e-04 -3.0154335517923896e-03  6.7184681114193094e-05 -1.6287432697913271e-04 -3.7217960683300945e-03  -7.6858328977649533e-06 -8.8721967490723637e-05 -3.5594941298500047e-03  2.2506149415091629e-06 7.0101449899677187e-06 -4.3946355115319579e-06  -4.7117236471264815e-07 3.7292695309430537e-06 -3.6649434978268557e-06  7.0651790734911358e-05 1.4211130976774476e-04 -4.5307700657063934e-03  -1.9410644549524131e-06 5.7086104790468039e-06 1.0051138082068081e-07  