<?xml version="1.0"?>
<VTKFile type="UnstructuredGrid"  version="0.1"  >
<UnstructuredGrid>
<Piece  NumberOfPoints="857" NumberOfCells="3763">
<Points>
<DataArray  type="Float64"  NumberOfComponents="3"  format="ascii">-0.0182597916573 0.126128911972 -0.119588643312  -0.0077641364187 0.0512270443141 -0.07050477713349999  -0.0237180162221 0.16240182519 -0.053058128804  -0.107877351344 0.105669431388 -0.0502408407629  -0.0444478429854 0.116080775857 -0.00235075876117  0.0393674038351 0.112876079977 -0.0491501875222  0.0248903874308 0.0489483103156 0.000152088920004  0.0314915925264 0.114928804338 0.0218031276017  -0.0657326281071 0.0685198307037 0.0497140102088  -0.0355357266963 0.164656624198 0.0508319064975  -0.010538729839 -0.0422629192472 -0.208358153701  -0.0239527057856 0.0135364839807 -0.242119863629  -0.0194642152637 -0.0775559768081 -0.263431429863  -0.08492307364939999 -0.0108216870576 -0.280446648598  -0.08293507993220001 -0.0361198186874 -0.159778758883  -0.0240796487778 -0.0824203491211 -0.148982465267  0.0430508553982 -0.121076337993 -0.234084427357  0.0307756774127 0.0324950888753 -0.198437720537  0.00352357281372 -0.00433266581967 -0.144715368748  -0.0456651262939 0.08372022956609999 0.342343091965  -0.116630032659 0.0117083769292 0.386158525944  -0.08223126828669999 0.0577075146139 0.289406776428  -0.0511222109199 0.00205342215486 0.300772219896  -0.0125984866172 0.0267426930368 0.351842552423  0.0303636882454 0.0561947338283 0.391145974398  -0.0524924062192 0.0543583929539 0.40361738205  -0.07944945245979999 0.130002260208 0.441037595272  -0.000730989675503 0.119443200529 0.385622620583  -0.078488714993 0.137875169516 0.332541137934  0.0142801422626 0.110509291291 0.27100610733  0.0224165506661 0.08303219079970001 0.331783413887  -0.0170432701707 0.161798536777 0.30022162199  0.000811119796708 -0.0515509881079 -0.08419398218390001  0.0888616070151 -0.015075173229 -0.0776951387525  -0.0989535748959 -0.0518730916083 -0.08125374466180001  -0.0433920919895 -0.09785594791170001 0.0106235472485  -0.0488061010838 0.0295096840709 -0.0131453983486  -0.25 0.25 0.5  -0.166666666667 0.25 0.5  -0.25 0.195066730511 0.445658150344  -0.19506166517 0.25 0.445542865294  -0.0213422998786 -0.126349791884 -0.045622177422  -0.117952652276 0.0158270020038 -0.16616243124  -0.0531469397247 0.0490713231266 -0.13630309701  0.0358348339796 -0.131537660956 -0.134171053767  0.0583617314696 -0.115307979286 -0.0462360456586  0.010585160926 -0.0606908276677 0.314250290394  0.078067921102 -0.133790805936 0.331458956003  0.0206208750606 -0.104583717883 0.36723652482  0.0300164371729 -0.13569638133 0.270959883928  0.0797956883907 -0.07311873137949999 0.388136893511  0.0291880238801 -0.0850581228733 0.220644980669  0.0788302049041 -0.07555303722620001 0.284453928471  -0.0465739220381 -0.108428947628 0.305151432753  -0.056692365557 -0.0812899768353 0.234353885055  0.10282895714 0.0630551427603 -0.0452189296484  0.178613707423 0.153893724084 -0.0703043565154  0.0750898644328 0.130835875869 -0.116260357201  0.0179002508521 -0.0400723591447 0.396018892527  0.07961820065980001 -0.020668130368 0.232235535979  -0.00726175494492 -0.022667773068 0.242156982422  0.0524490773678 0.0171752162278 0.310696065426  0.0103002395481 0.0813155695796 0.107229083776  0.00225681974553 -0.008687185123560001 0.0457225777209  0.177950121638 0.25 0.0405701099774  0.151375159621 0.202163234353 -0.00268407491967  0.13042794168 0.172564610839 0.0599601529539  0.184557154775 0.16295710206 -0.00737970136106  0.0827306732535 0.011830884032 0.0299163535237  0.106673434377 0.0676268041134 0.0663062110543  0.25 0.25 0  0.25 0.177947182503 0.0435581305687  0.0251978598535 -0.0201241951436 -0.0233656335622  -0.25 -0.25 0.25  -0.175495340629 -0.25 0.295351832328  -0.25 -0.175776260788 0.294629825204  -0.164853364229 -0.189889326692 0.246240898967  0.111295968676 0.25 -0.00354384794953  0.0417815256417 0.25 0.0264120515999  0.0577150444892 0.25 -0.0418173710713  0.035034801811 0.196921139956 -0.0497792549431  -0.115254960954 0.0352221727371 -0.0357825122774  0.0360979661345 0.0743419006467 -0.130612716079  0.08110298216340001 0.0143552683294 -0.135737240314  0.0281950440258 0.110801942647 -0.38559025526  -0.000352636008756 0.154027625918 -0.45018479228  0.0220217909664 0.07910815626379999 -0.445265561342  -0.041934799403 0.09297795593740001 -0.440330862999  -0.115356497467 0.128115877509 0.0303980205208  -0.08144567906859999 0.192924261093 -0.0396481454372  -0.0503155887127 -0.140062868595 0.370642662048  0.0181560348719 -0.191118896008 0.319997102022  -0.09442232549189999 -0.0766885429621 0.347179293633  -0.10306725651 -0.0245223585516 0.261891931295  -0.0371639840305 -0.192689821124 0.258922994137  -0.08778057992460001 -0.193450272083 0.293951839209  -0.116932563484 -0.137108251452 0.278956532478  -0.0434515699744 -0.19969072938 0.340430229902  -0.016621209681 -0.143479332328 0.208528921008  -0.0799133181572 -0.177766740322 0.206858798862  -0.0340202823281 -0.07231882214550001 0.405357718468  -0.153045728803 -0.0703692808747 0.28540495038  -0.0647673308849 -0.069349065423 -0.297796696424  -0.0468406006694 -0.118580199778 -0.331259429455  -0.0636249184608 -0.122360698879 -0.235275790095  -0.137311711907 -0.115820750594 -0.279358655214  -0.25 -0.25 0.333333333333  -0.00222280388698 -0.0275516584516 -0.327156513929  0.0233143884689 -0.124395690858 -0.330935031176  -0.00544846989214 -0.0444226972759 -0.392852008343  -0.07202984392639999 -0.0450558848679 -0.379192590714  -0.128861442208 -0.0482712239027 -0.325591087341  -0.0319190612757 0.25 0.27473160228  0.0259018652141 0.196524605155 0.343851953745  -0.0424101948738 0.196461260319 0.324036180973  -0.08801463991400001 0.193724930286 0.280150324106  -0.051391992718 0.129726842046 0.244459152222  0.0793330296874 0.131078347564 0.273738384247  0.0304427426308 0.197590425611 0.258007407188  0.139736711979 -0.103549621999 0.308288753033  0.117407329381 -0.00031748006586 0.284001767635  0.17845864594 0.0137020656839 0.2717012465  0.133446916938 -0.07468281686309999 0.252671837807  0.193237304688 0.0103836003691 0.32706490159  0.108656100929 -0.016409387812 0.370573759079  0.195593327284 -0.0705924406648 0.374003827572  0.204297035933 -0.0882691517472 0.283604085445  0.15987212956 -0.0232784096152 0.211559042335  0.103109702468 -0.0715631917119 0.185957938433  0.25 -0.177950121638 0.0405701099774  0.25 -0.111295968676 -0.00354384794953  0.168315500021 -0.181550845504 -0.0129796266556  0.203061833978 -0.0839376300573 0.0201103240252  -0.123973377049 0.0421161539853 0.0831994190812  0.10652089864 0.041568480432 0.133020982146  -0.00508088478819 0.00464248098433 0.118765294552  0.0384838804603 0.0542355030775 0.219570666552  0.0556482039392 0.09942726045850001 0.165778696537  0.25 -0.25 0  0.25 -0.17904445884 -0.0421267671166  0.0085972994566 0.139411628246 0.206887423992  -0.0427397117019 0.0734880268574 0.199836358428  0.25 -0.25 0.166666666667  0.177338154858 -0.25 0.209433902167  0.178222204231 -0.25 0.126578397361  0.180748909712 -0.154124230146 0.180074676871  0.118582360446 0.0498475395143 0.233844980597  0.113276541233 0.115120351315 0.208414897323  0.068451166153 0.123325429857 0.09300038218499999  0.08695217221980001 0.18308262527 0.11987875402  0.1366494596 0.0978636816144 0.125807240605  0.0170362386853 0.165571182966 0.116205818951  -0.075325883925 -0.13042730093 -0.120773427188  -0.191016584635 -0.1764793396 -0.0778442546725  -0.102759346366 -0.20253264904 -0.07015967369080001  -0.126150563359 -0.115044787526 -0.0573479756713  -0.138729035854 -0.104583211243 -0.134180948138  -0.147993162274 -0.138949289918 -0.203295826912  -0.180331096053 -0.192031860352 -0.160557568073  -0.194399222732 -0.0846866071224 -0.148938387632  -0.11259970814 -0.078034222126 -0.193649172783  0.0326924659312 -0.122268341482 0.0296003930271  0.0215157996863 -0.180560961366 -0.0757267251611  0.0956164896488 -0.0493310950696 -0.0164182558656  0.112129375339 -0.112067811191 -0.105549775064  0.127802968025 -0.106147237122 -0.0110959038138  -0.0854129120708 -0.015297700651 0.056893799454  -0.0204317308962 -0.0795602425933 0.117458000779  -0.178222204231 0.25 0.126578397361  -0.177947182503 0.25 0.0435581305687  -0.107976816083 0.25 0.0905854563709  -0.157577678561 0.178241759539 0.0969507619739  0.25 -0.25 0.333333333333  0.25 -0.25 0.25  0.175776260788 -0.25 0.294629825204  0.25 -0.175495340629 0.295351832328  0.0932372882962 -0.0430554822087 0.0724518448114  -0.044769000262 -0.00661279587075 0.403999477625  -0.194478780031 -0.0247275307775 0.332954645157  -0.173761367798 -0.0806607827544 0.396263659  -0.137637495995 0.00523930834606 0.315887242556  0.0864742994308 -0.139340251684 0.176064118743  0.105438224971 -0.136641919613 0.253711819649  0.0308670303835 -0.25 -0.136809572586  0.0367561832589 -0.25 -0.219583441074  0.0925811678171 -0.20055809617 -0.19996842742  0.0127155454829 -0.193433105946 -0.225977659225  0.0415658205748 -0.200880005956 0.196522325277  0.0373581312597 -0.119548290968 0.120048768818  -0.0954102815882 -0.25 0.346414074494  -0.101368582479 -0.25 0.251933327382  -0.0374909392175 -0.25 0.286229296012  0.0852289572358 0.109103307128 -0.27055695653  0.07707493752239999 0.127253636718 -0.199824258685  0.128097131848 0.07648140937090001 -0.209757223725  0.154867321253 0.13628205657 -0.212952241302  0.08678253740069999 0.189277544618 -0.274375885725  0.127699971199 0.0803090333939 -0.326344817877  0.0577741526067 0.0601542405784 -0.31936660409  0.0525139421225 0.129102528095 -0.326874881983  0.0251371748745 0.175572559237 -0.261228203773  0.0199144631624 0.0927290171385 -0.265960127115  -0.148952946067 -0.121583275497 -0.374568909407  -0.25 0.177950121638 0.0405701099774  -0.25 0.111295968676 -0.00354384794953  -0.175531774759 0.135734900832 0.0562076568604  -0.178730383515 0.191659659147 -0.00562386959791  -0.0244714934379 -0.108516678214 -0.387223660946  -0.09279609471560001 -0.170035287738 -0.445968538523  -0.0281062982976 -0.0
[...]
<PointData  Vectors="f_104"> 
<DataArray  type="Float64"  Name="f_104"  NumberOfComponents="3" format="ascii">1.3176827336393946e-05 4.1272469799187090e-04 1.4286945725603534e-01  2.4840357689964997e-04 2.8621723284370462e-04 1.7075783908361666e-01  -4.7750481529100917e-05 3.2522090388321804e-04 1.1922746165322845e-01  -1.2146449306323513e-04 6.5564120810859634e-06 1.3525845368733916e-01  -4.8287677129650358e-04 3.3980491055533553e-04 1.4671120141475041e-01  -3.6905161425622576e-04 -3.9389700259549846e-04 1.4870364070823974e-01  1.0072150467769034e-04 1.2430245790639199e-04 1.7008167653133824e-01  -2.1157186522542169e-04 2.4476873083670037e-04 1.4788872157751851e-01  -6.3369742640753918e-04 2.2477271936517982e-04 1.5947380053864760e-01  -4.1111645074144105e-05 7.8662799775723353e-04 1.1741121882752913e-01  -3.3759413784882657e-04 9.2900826676465954e-06 1.7203089321740578e-01  -1.4136037990815366e-05 4.9290733908538269e-05 1.7399394916183702e-01  2.2209742821656450e-05 1.0969911071879184e-04 1.6261124411792974e-01  2.5378254010110031e-05 -5.5343344005866424e-05 1.6016998412666428e-01  1.7625634273723523e-04 3.3362889619009244e-04 1.5985126313993980e-01  -8.6438202143922913e-05 -9.9404741751688865e-05 1.6175037856584912e-01  -4.6341830104536361e-05 1.3865164323332034e-04 1.4182687164705782e-01  2.7064480454941200e-05 -2.9349826262327973e-04 1.7188229698800395e-01  -1.0918243217581711e-04 -9.0740925451159000e-05 1.7607671948248504e-01  -4.8010184260146964e-03 7.5773721048184393e-03 1.4635266752868245e-01  -1.1834294461123895e-02 1.0999380394281979e-03 1.3523816858795432e-01  -4.3596961936316478e-03 3.0657756677451055e-03 1.5128416662053881e-01  -4.4008588072507113e-03 3.5491924769400965e-04 1.6043551105566448e-01  -2.0538642700551556e-03 2.2881610451479170e-03 1.5361450904952573e-01  4.7594248131885095e-03 7.0262460212874491e-03 1.4119857300345889e-01  -7.5497210860781035e-03 7.4435192819962363e-03 1.3764643994185002e-01  -1.1437900975452513e-02 1.7844107504800727e-02 1.2303807825159783e-01  -5.5183862622505610e-04 1.2358049834081185e-02 1.3214152406015389e-01  -4.6517881644813934e-03 6.4775499824289177e-03 1.2451261830668220e-01  1.0678390044038604e-03 4.5516176195728357e-03 1.4518048476689210e-01  1.1400391368739894e-03 6.1270288547327105e-03 1.4875081090653999e-01  -7.0722380559476298e-04 4.9822581210757491e-03 1.1836437509237230e-01  -2.5881708680078829e-04 -6.7554640174992292e-05 1.7080806865258158e-01  2.5951743226516155e-05 3.4408230356239875e-04 1.5947906549034402e-01  -8.3034461774629919e-05 -5.5211541201862192e-05 1.5141130011886775e-01  3.4577986716699538e-04 -5.4476494428592071e-04 1.5429923519609443e-01  -3.9381162194608192e-04 7.4384684196700127e-04 1.7031148707830132e-01  -1.0579047616448987e-02 8.8867942441391672e-03 1.3694010484908642e-01  -7.9188273541911693e-03 3.2650093091863164e-03 1.2761833362477229e-01  -9.0702187972699130e-03 1.0814105052004546e-02 3.2513559339462691e-02  -7.8162238780517326e-03 7.0999209969089608e-03 3.4942308846298391e-02  4.5948764786227355e-04 -2.0681083202938531e-04 1.4360601089116795e-01  3.5496903505366273e-04 -4.2340612308388616e-04 1.4574119585941966e-01  -3.8349236227953941e-04 -4.6175836831660977e-05 1.6640483671219639e-01  -1.1496282570626430e-04 -1.7169837954918889e-04 1.3817780602380622e-01  -3.2450080557745935e-05 -8.8457761488190895e-04 1.4532058436369100e-01  9.9354879400489560e-04 -5.3625980167062949e-03 1.5557801176022829e-01  5.4614808206800095e-03 -7.0445561056750603e-03 1.2550651417962480e-01  1.6406349136464530e-03 -1.1154125913187488e-02 1.3746185678366890e-01  1.3904683219325279e-03 -4.9252396667957459e-03 1.3473395268487584e-01  1.1105248254253484e-02 -9.1479160751887830e-03 1.3340959284113760e-01  5.3192961303834101e-04 -2.3717018891055404e-03 1.5908950803694971e-01  4.2975300139309952e-03 -4.2399020165811586e-03 1.4729424659725623e-01  -2.4061210495391243e-03 -5.8834507255769667e-03 1.4396123227619448e-01  -1.4088205948957729e-03 -2.7500147690164788e-03 1.5475410599980360e-01  2.4039327629016023e-04 -1.4649498123841403e-04 1.4747470739856069e-01  4.9479102104116280e-04 1.4512298622917124e-04 8.3865513395520869e-02  -3.7875422187901492e-04 -2.8780069328987213e-04 1.3236443445673646e-01  2.1836352542172989e-03 -6.1125281767561703e-03 1.4285843380111329e-01  2.7239926718356107e-03 -1.2715049895115295e-03 1.6050523879917800e-01  -6.9438698342881079e-04 -1.8252776676930408e-03 1.7354420378017160e-01  4.0454551662698641e-03 1.0403052886819289e-03 1.5934548233403273e-01  -3.4447518361032189e-05 1.3214815924415411e-04 1.6371023346071034e-01  3.2230223831004764e-04 2.6308010371919866e-04 1.7620472831499931e-01  -1.1411877475455371e-04 -8.0514958126896814e-05 2.9863668805380446e-02  1.0928457319679726e-03 7.8695675867833609e-04 6.8678187479963751e-02  6.0627457439483815e-05 7.1490635516359088e-04 9.3961871531601363e-02  -4.7929272508413541e-05 1.2833788337633000e-04 7.5556979481875647e-02  2.3458996984467628e-04 -3.3985126196976317e-04 1.6157848507488082e-01  3.2469634294422740e-04 -2.5609868887198134e-04 1.4732666961339627e-01  -2.5225396098029038e-04 -1.3197423244197434e-04 2.9851165931344924e-02  -2.2684115777989026e-04 -1.4313429658159898e-05 2.9879499857189663e-02  8.4377194055080472e-05 -5.2248845114568287e-04 1.7288929296946298e-01  -8.7436586751935084e-04 -5.7227546892860473e-04 3.2881371133696782e-02  -2.1686615297678447e-03 -7.3202967051820133e-04 3.4273113588452593e-02  -8.1672161263938667e-04 -1.9341827494187690e-03 3.4168402812527712e-02  -2.0972611094252839e-03 -2.4071515948305261e-03 7.6406153518990938e-02  -3.5653709174271728e-05 -1.5103031088929160e-04 2.9782983310666550e-02  5.7996544200939146e-05 -1.4023040193446973e-04 2.9697374702400952e-02  -1.6957305184675657e-05 -1.7980067121032734e-04 2.9859329737234881e-02  -1.0905339776945419e-03 -1.1202201870469312e-05 8.7796328802418527e-02  -3.5254025997453361e-05 8.5057181140772489e-05 1.4616928089543088e-01  -7.7838537055623872e-05 -2.2140720241123246e-04 1.6320776777892784e-01  -4.2696340925865820e-04 -1.4247222242382433e-04 1.6151566027007430e-01  -5.9153141151557572e-05 -1.4103124653209071e-04 1.4897463015568893e-01  1.0831983930700398e-05 -1.3260467338400237e-04 1.2518544906323170e-01  1.0941493074482048e-05 -8.0545158456444142e-05 1.6216364129121896e-01  -2.4236117049501012e-05 -9.2546253012932821e-05 1.5478350752302544e-01  -3.4445943822612008e-04 2.9405383788749529e-04 1.2274943363250443e-01  1.5892146151906078e-04 6.6561288526539126e-04 8.9118482388426706e-02  -5.1061115448671661e-03 -1.0585448445374769e-02 1.2670399803734914e-01  1.1445961014288995e-03 -5.7795988428190484e-03 9.5867703432167925e-02  -7.4194491039389103e-03 -7.1957312344372972e-03 1.3798237012537967e-01  -2.9099122945867762e-03 -1.4469614094142740e-03 1.4981793009287489e-01  -1.8967210957017437e-03 -2.8775412045366319e-03 9.3247964759114899e-02  -3.0191963446299748e-03 -3.6565733600631366e-03 9.1341074822129470e-02  -3.9567810655889747e-03 -5.0309199113634908e-03 1.1761193579672677e-01  -2.5008304992968958e-03 -6.6106295629468478e-03 8.7820190449664715e-02  -8.1568873188397071e-04 -2.1905685841530007e-03 1.3406007811897333e-01  -8.8690853322449315e-04 -2.2220398993143186e-03 1.0266890104642870e-01  -5.2094537645188321e-03 -1.1068194811949148e-02 1.3600197362269234e-01  -4.2553856500362414e-03 -2.6618775298275087e-03 1.1873360174653162e-01  1.3330320503218324e-04 -6.0829912209807958e-05 1.5777656139188392e-01  1.2062938389195231e-04 -4.3468577988240254e-05 1.4301833187365751e-01  1.2383873115394609e-04 5.8287135385813897e-04 1.3833513359168578e-01  1.2540966239543727e-05 8.4584264876692711e-05 1.1724885322662758e-01  -1.9201854460161923e-03 -2.4461732292834354e-03 3.4941270312270983e-02  1.5754582990722350e-05 2.0255693018962048e-04 1.7349742581093730e-01  3.3291842256675066e-05 -4.7447111047098197e-07 1.4278663769391897e-01  8.8315528058333711e-05 -9.6734170650396699e-05 1.7139828861476433e-01  1.4508481843548583e-04 2.8504018940320863e-04 1.6107354787382250e-01  7.6499833031578113e-05 -8.4620841861799232e-06 1.3776936840378642e-01  3.2274561536999534e-04 1.5590028390622471e-03 3.1160025506674530e-02  1.3366472403310897e-03 7.8162330528349557e-03 9.0568539071524581e-02  -2.2045148631462718e-03 7.0964020237459262e-03 8.4376667333088504e-02  -2.5785466908464132e-03 3.5003437910153313e-03 8.8676187343922908e-02  -1.0673171443990066e-03 3.5082395489510316e-03 1.3509878558533947e-01  3.1804351290645270e-03 5.0728679563178287e-03 1.2822912112071980e-01  3.8746153592405131e-04 3.4236359203337866e-03 9.0310217372380333e-02  5.4067873963154047e-03 -5.5728920797879656e-03 1.1992979249563299e-01  5.1401026223440076e-03 3.0880874490464832e-04 1.4187548705629044e-01  3.4181268696565010e-03 6.1151887543696686e-04 1.0681214269965789e-01  2.5710613910415684e-03 -2.6099291586215586e-03 1.3086964176569593e-01  7.3143876510825736e-03 6.2827777869271914e-04 9.3145933998629429e-02  1.0188887615870165e-02 -1.8019323004936259e-03 1.3736051030757929e-01  8.7121231121786505e-03 -6.2842156823108616e-03 9.2338225903614402e-02  3.6535338867716115e-03 -2.9088490008711315e-03 8.0098606579338288e-02  2.4443824926389029e-03 -8.5384353794161060e-04 1.2186343567869302e-01  1.1310616624928501e-03 -7.9729061476134305e-04 1.4518465668663313e-01  -1.5378005136079304e-04 2.5636591254022355e-04 2.9731979307309708e-02  -2.2624348118486815e-04 2.2157927387487543e-04 2.9687818220064600e-02  -2.6517017661259164e-04 1.5570469802312712e-05 7.5082500127775051e-02  4.9505245300665959e-04 6.4156335433004582e-04 7.9701569586521664e-02  -5.5219732049640116e-04 2.6299344231643736e-05 1.4110900077375013e-01  1.1825810873424309e-03 6.0899916307964488e-04 1.4866742010520775e-01  3.0831175727120876e-04 -7.1887188693466053e-04 1.7392481595182291e-01  9.6789204213146437e-04 1.3106658592230514e-03 1.6481316409382624e-01  5.6914476800262964e-04 1.3717971387621956e-03 1.5182307829192646e-01  -1.6678436708823484e-04 3.3865048151811479e-04 2.9688203019222221e-02  -1.4910627754865702e-04 3.0985173988936151e-04 2.9757591370425593e-02  -2.7676730938346823e-05 2.8919223866601643e-03 1.3476941467243192e-01  -1.1829677399362783e-03 1.4137803997470520e-03 1.6030915654533340e-01  -2.1419802541816600e-04 2.1154295008167807e-04 3.0981637845199493e-02  5.3634544091982553e-04 1.6333715082599218e-04 3.1599777373555772e-02  1.4384816790422614e-04 3.4138607153657972e-04 3.0252736244018408e-02  1.5963020585430916e-03 -1.1780652218493504e-03 8.3609693251071746e-02  2.4231784095750056e-03 9.3003172722949451e-04 1.4026908841346405e-01  1.9327118752868284e-03 1.9643685513880990e-03 1.2835645174109242e-01  9.7312217247289533e-04 5.3532549437014347e-04 1.3961863786940470e-01  -3.3300526580951074e-05 8.2943236489365496e-04 9.6188990601753926e-02  9.2644330214938905e-04 2.9339472276493768e-04 1.2480503195515838e-01  -3.1111860508712477e-05 1.9250048047620165e-04 1.1696293755703216e-01  4.8331806833967658e-04 2.7676921422857428e-05 1.3326751697813438e-01  -7.2254222035297421e-04 -1.5237503124093177e-04 6.9911266249991277e-02  3.9939347559862852e-04 -3.6559405604019176e-04 7.9422661723715746e-02  -2.9605711054296531e-04 4.7989780443917382e-04 1.2097023111152505e-01  1.0440228176206146e-04 5.2017676946223063e-05 1.1949956554175027e-01  3.0949179669575246e-04 3.6744103811414057e-04 1.0295030536258230e-01  -2.2113232259595008e-04 -4.3447876900270529e-04 6.6974792473796688e-02  2.3274446956754477e-04 4.8275161712525228e-04 8.7674663569450959e-02  4.8053512876683548e-05 -2.4902037513287168e-04 1.4108130511968101e-01  -1.4272671886183345e-04 -5.5538135638555429e-04 1.4428143635768675e-01  -7.7159442786906520e-06 2.4493529907589632e-04 1.0469983315814864e-01  -2.2500511998528095e-04 3.5441317830255044e-04 1.5390257808381175e-01  -2.4809974712677971e-04 -2.2099388041555684e-04 1.3001784527059423e-01  1.0213928379113033e-04 4.0272422754193086e-04 1.2467001784934860e-01  -2.3682753356924567e-04 7.2774921696139869e-04 1.5974063180176862e-01  -2.1278813668464597e-04 -9.9560005877857632e-04 1.6223816141897046e-01  -5.7062150067524884e-05 -5.0107015288068337e-05 3.0408807629024797e-02  1.0609415638747624e-04 -2.3376995988177844e-04 2.9888918361184996e-02  -2.0295947679660830e-04 -9.7518133734092767e-05 2.9985381716850720e-02  -4.1398434976171362e-04 5.0716763999037210e-04 8.1935630150372932e-02  1.6436505451560967e-03 -5.5893651459696747e-04 3.6798874221886838e-02  2.7401428027071099e-04 -3.1538680826439039e-04 3.3112834319063110e-02  1.7864720297461523e-03 -3.2441161337138416e-04 3.4100956745961031e-02  6.3575661603474797e-04 -1.6359814432927665e-03 3.4934837582978155e-02  5.8214847193185394e-04 3.1044305873084878e-04 1.5535893553447924e-01  -7.4854957974087198e-03 -1.3671025164402499e-04 1.4289088120839374e-01  -7.4873877331975659e-03 -1.6055077935922916e-03 9.0362257795749940e-02  -1.1856584586158748e-02 -7.2781129035724987e-03 1.0697935555231364e-01  -6.6871736639029641e-03 5.8140414622537663e-04 1.3216811755930438e-01  1.2786994147768200e-03 -1.4486432735909005e-03 1.2352212479489418e-01  3.0390155538358760e-03 -3.1375407672332191e-03 1.2265072770502219e-01  -3.1482193815939847e-05 2.4592400615856363e-04 3.0055756477839986e-02  -4.3576116584627976e-05 2.4742843508371466e-04 3.0294758952697821e-02  -2.5905885021074870e-04 2.2691129558062231e-04 8.1783044599273103e-02  -2.1016696319508098e-04 2.1467160534784162e-04 9.2345034713824603e-02  8.2517815174841546e-04 -1.8052620073258252e-03 8.5608373459290371e-02  -1.8298068030538664e-04 -9.3544726526834934e-04 1.4280930235825101e-01  -2.9346401054053594e-03 -3.1200987425970203e-03 3.2015907367919601e-02  -9.4340157518587513e-04 -3.7444455938582535e-04 3.1822809823035265e-02  -5.8122237270821016e-04 -8.2813054345635831e-04 3.1810773361111933e-02  -8.2625031311788587e-05 -1.9276447392491908e-04 1.3933137154032665e-01  5.7178425250200295e-05 -6.0155125258288546e-05 1.3351868220903462e-01  -1.7860373995527020e-05 1.2554965259222546e-04 1.3392869819240708e-01  -8.2581637641704683e-05 1.2146624402266631e-04 1.0168876732589373e-01  -8.8380032699174170e-05 1.0080030981079251e-04 9.1967323596947620e-02  -2.2841434819667302e-04 -9.4571391512747691e-05 1.3217036111938590e-01  -4.0983841025300052e-05 -1.2202635147418920e-04 1.6219441546610003e-01  -1.0990181971123375e-04 7.2257314790137624e-05 1.3692595290404563e-01  -2.6548389842139578e-05 -5.5720914738618302e-05 1.0785588677224714e-01  -3.4713237037814254e-05 5.7185992479149051e-05 1.5770037765066613e-01  5.1832436833845868e-06 9.6821213098643983e-05 1.0974771445765347e-01  1.9783624488825617e-04 -8.8357760417821031e-05 2.9846822218161945e-02  2.0687637311620391e-04 -5.8955535987681779e-07 2.9811805995546427e-02  -1.8324416267207497e-04 9.4711254743006467e-04 8.9810869991332878e-02  -2.6038809086271786e-04 9.3082273840771452e-04 6.7836109689021068e-02  -1.3107446709955230e-04 3.8433298810303759e-06 1.5091321377808142e-01  2.3717110525283340e-05 -3.1789948259286255e-05 1.0488806997549423e-01  -2.3163704157280782e-05 -7.1077411851083332e-05 1.6117808207032214e-01  2.0550402726147415e-04 -2.3455044977321545e-04 2.9822196402904944e-02  1.8336442849828979e-04 -1.7488762537879208e-04 2.9844295100292437e-02  -1.3248095359920620e-04 -1.9506055437684851e-04 1.1868706684093468e-01  3.4873089133351378e-04 1.0921204893537931e-04 9.3935820622252017e-02  1.1445555065359343e-04 -2.0695777958121633e-05 1.0948439484159864e-01  3.4348794788993588e-04 3.5154148465241312e-04 1.0296730561204277e-01  2.2499490733277796e-04 3.6547979681582365e-04 1.5906254137673237e-01  7.7460676962700290e-06 3.3117442830181861e-05 3.0746727917493930e-02  8.6609278508753014e-06 5.6899004880126175e-05 3.0750840203807354e-02  3.6846202982129198e-05 1.1810043728466471e-04 3.0553984260189990e-02  3.7791691364517062e-06 -8.9943310264040441e-05 9.2111311771726087e-02  2.0399643819736895e-05 9.3561897688341367e-05 1.6330147107135884e-01  5.4548622701537483e-05 -3.4016478267979538e-08 1.6478576940365552e-01  4.1061269399160530e-05 -4.5543670229443602e-04 1.3508334189558258e-01  -1.9570140004038908e-04 -6.8351062595351438e-05 1.4790867894530152e-01  -2.7747508855834746e-04 -1.4137755180222968e-04 1.5353093899079090e-01  -2.8926771887319118e-04 9.6208535434533717e-05 1.4442125697928604e-01  1.6824445733033041e-04 3.1078077445977992e-04 2.9794294243692836e-02  1.1807287481283741e-04 3.5864495397667931e-04 2.9720494435919183e-02  -4.0619094358835352e-04 -2.9700719821693105e-04 6.9145721182481995e-02  2.0104429348742048e-04 -4.3854565202069290e-04 8.6885801548975891e-02  5.4556339582750941e-05 -2.0820345457262668e-04 1.3134954144025793e-01  1.8895802835257601e-04 -3.5522349584444574e-04 1.3971692013780695e-01  -1.2793962621641269e-03 4.9663064373866130e-04 1.6098169685513367e-01  -8.0147603855010437e-04 1.1394377062106998e-03 1.4508035148488832e-01  -3.7458082218590305e-03 2.8944148403917645e-03 1.2565534941719114e-01  -4.1108219167003924e-03 2.7339859569647956e-03 1.2780340387697933e-01  -9.6165121396261221e-03 9.3560411906386497e-03 1.2575888646747013e-01  -2.8760365725077290e-05 -1.0253204039145434e-05 1.6938340805300364e-01  6.0065054814526943e-05 -1.5952236936892346e-05 1.5890026719477585e-01  1.0888346500756175e-04 -9.4831229609475937e-05 1.4633093817027018e-01  -1.3197745235394494e-04 -5.8857187752010725e-05 1.7334581877335803e-01  2.4390730734134652e-05 -1.9332193483257175e-04 1.5164111981661108e-01  1.4533066704415699e-04 -1.4808067565878191e-04 1.5390553999453571e-01  7.3950728478655377e-05 -5.2557973357173187e-05 1.6735810475831198e-01  -6.7953743266983542e-05 -9.4105756287564337e-06 1.4364512780744415e-01  -4.9882319427809874e-05 1.1967317731516138e-05 1.4546104650778796e-01  3.0581410746074154e-04 5.5351294405896945e-05 8.5368296110908806e-02  1.3484514672935425e-04 -5.6507169720355567e-05 1.1256902349261914e-01  3.8407873167813281e-05 -6.3060226874923277e-05 1.1658154482391127e-01  1.0657182863520735e-04 3.4067426799479748e-05 7.3727486867744080e-02  -1.5349628423525492e-05 -1.4503502051444624e-04 9.0119216119152343e-02  8.0674577155059924e-06 -2.8455683153568253e-04 1.1223723081684171e-01  -1.0085582985804573e-04 1.7293434964470755e-04 9.0376931778335598e-02  -8.1959109713605503e-05 -2.2234789078229218e-04 8.5258002262606741e-02  5.5707904524226869e-03 -6.1163035263926014e-03 7.9558963560020207e-02  5.7977548498958130e-03 -4.5377904811646106e-03 8.8340851907165327e-02  2.1469393377112414e-03 -2.5939586681398763e-03 7.2388695788582397e-02  1.0244562964751871e-02 -1.1336361806686200e-02 1.2080133410085175e-01  -1.4905985734578702e-02 -7.5865899933152351e-03 1.2670924908061276e-01  -1.0229796180231858e-02 -1.6051159592039631e-02 1.2545296410042861e-01  -5.4907031340512176e-04 4.0736119662589846e-05 3.2065224076686875e-02  -1.6862003773196392e-03 3.9403607018368136e-04 3.2388158126593805e-02  -5.0824390248846430e-04 -4.2700160806206039e-05 3.0912337345601892e-02  -2.5992529764850450e-03 2.6994679929579169e-03 7.9961558181840794e-02  2.5563593231312685e-03 -1.4152551618675664e-02 1.2483860456849559e-01  6.5012463847381611e-04 -2.2173266925037721e-02 1.1492549341566367e-01  4.0331573480118660e-04 -1.0686534285115583e-02 9.7078299930130743e-02  -6.1890664744584534e-03 -5.7758749772488507e-03 8.1325736909007407e-02  8.0785683811601151e-03 4.8491051360136208e-03 1.3326793401439285e-01  1.0791387458423451e-02 8.9801317317351470e-03 1.2407345046954253e-01  1.2611181568288310e-02 7.0081819484661516e-03 1.0645168236027586e-01  4.8474325046189764e-03 3.5848423703093179e-03 1.0447665330127469e-01  1.5505980635000101e-05 3.3076727407157173e-05 3.0782201056992715e-02  -3.6576076113713440e-06 3.5215608361480272e-05 3.0786408749192359e-02  2.4429148617937777e-05 -8.1495416057359590e-05 1.0936762770992181e-01  -1.8084154951747297e-04 7.5416029665779710e-04 3.3221815253537866e-02  -1.9209186778998124e-03 1.5374045662718207e-03 3.3620407968172054e-02  -1.5071482158211676e-03 2.0538963353447948e-03 7.6921712518501786e-02  -7.5891372103812724e-05 2.1767453053892074e-04 1.6665657043609755e-01 