<?xml version="1.0"?>
<VTKFile type="UnstructuredGrid"  version="0.1"  >
<UnstructuredGrid>
<Piece  NumberOfPoints="857" NumberOfCells="3763">
<Points>
<DataArray  type="Float64"  NumberOfComponents="3"  format="ascii">-0.0182597916573 0.126128911972 -0.119588643312  -0.0077641364187 0.0512270443141 -0.07050477713349999  -0.0237180162221 0.16240182519 -0.053058128804  -0.107877351344 0.105669431388 -0.0502408407629  -0.0444478429854 0.116080775857 -0.00235075876117  0.0393674038351 0.112876079977 -0.0491501875222  0.0248903874308 0.0489483103156 0.000152088920004  0.0314915925264 0.114928804338 0.0218031276017  -0.0657326281071 0.0685198307037 0.0497140102088  -0.0355357266963 0.164656624198 0.0508319064975  -0.010538729839 -0.0422629192472 -0.208358153701  -0.0239527057856 0.0135364839807 -0.242119863629  -0.0194642152637 -0.0775559768081 -0.263431429863  -0.08492307364939999 -0.0108216870576 -0.280446648598  -0.08293507993220001 -0.0361198186874 -0.159778758883  -0.0240796487778 -0.0824203491211 -0.148982465267  0.0430508553982 -0.121076337993 -0.234084427357  0.0307756774127 0.0324950888753 -0.198437720537  0.00352357281372 -0.00433266581967 -0.144715368748  -0.0456651262939 0.08372022956609999 0.342343091965  -0.116630032659 0.0117083769292 0.386158525944  -0.08223126828669999 0.0577075146139 0.289406776428  -0.0511222109199 0.00205342215486 0.300772219896  -0.0125984866172 0.0267426930368 0.351842552423  0.0303636882454 0.0561947338283 0.391145974398  -0.0524924062192 0.0543583929539 0.40361738205  -0.07944945245979999 0.130002260208 0.441037595272  -0.000730989675503 0.119443200529 0.385622620583  -0.078488714993 0.137875169516 0.332541137934  0.0142801422626 0.110509291291 0.27100610733  0.0224165506661 0.08303219079970001 0.331783413887  -0.0170432701707 0.161798536777 0.30022162199  0.000811119796708 -0.0515509881079 -0.08419398218390001  0.0888616070151 -0.015075173229 -0.0776951387525  -0.0989535748959 -0.0518730916083 -0.08125374466180001  -0.0433920919895 -0.09785594791170001 0.0106235472485  -0.0488061010838 0.0295096840709 -0.0131453983486  -0.25 0.25 0.5  -0.166666666667 0.25 0.5  -0.25 0.195066730511 0.445658150344  -0.19506166517 0.25 0.445542865294  -0.0213422998786 -0.126349791884 -0.045622177422  -0.117952652276 0.0158270020038 -0.16616243124  -0.0531469397247 0.0490713231266 -0.13630309701  0.0358348339796 -0.131537660956 -0.134171053767  0.0583617314696 -0.115307979286 -0.0462360456586  0.010585160926 -0.0606908276677 0.314250290394  0.078067921102 -0.133790805936 0.331458956003  0.0206208750606 -0.104583717883 0.36723652482  0.0300164371729 -0.13569638133 0.270959883928  0.0797956883907 -0.07311873137949999 0.388136893511  0.0291880238801 -0.0850581228733 0.220644980669  0.0788302049041 -0.07555303722620001 0.284453928471  -0.0465739220381 -0.108428947628 0.305151432753  -0.056692365557 -0.0812899768353 0.234353885055  0.10282895714 0.0630551427603 -0.0452189296484  0.178613707423 0.153893724084 -0.0703043565154  0.0750898644328 0.130835875869 -0.116260357201  0.0179002508521 -0.0400723591447 0.396018892527  0.07961820065980001 -0.020668130368 0.232235535979  -0.00726175494492 -0.022667773068 0.242156982422  0.0524490773678 0.0171752162278 0.310696065426  0.0103002395481 0.0813155695796 0.107229083776  0.00225681974553 -0.008687185123560001 0.0457225777209  0.177950121638 0.25 0.0405701099774  0.151375159621 0.202163234353 -0.00268407491967  0.13042794168 0.172564610839 0.0599601529539  0.184557154775 0.16295710206 -0.00737970136106  0.0827306732535 0.011830884032 0.0299163535237  0.106673434377 0.0676268041134 0.0663062110543  0.25 0.25 0  0.25 0.177947182503 0.0435581305687  0.0251978598535 -0.0201241951436 -0.0233656335622  -0.25 -0.25 0.25  -0.175495340629 -0.25 0.295351832328  -0.25 -0.175776260788 0.294629825204  -0.164853364229 -0.189889326692 0.246240898967  0.111295968676 0.25 -0.00354384794953  0.0417815256417 0.25 0.0264120515999  0.0577150444892 0.25 -0.0418173710713  0.035034801811 0.196921139956 -0.0497792549431  -0.115254960954 0.0352221727371 -0.0357825122774  0.0360979661345 0.0743419006467 -0.130612716079  0.08110298216340001 0.0143552683294 -0.135737240314  0.0281950440258 0.110801942647 -0.38559025526  -0.000352636008756 0.154027625918 -0.45018479228  0.0220217909664 0.07910815626379999 -0.445265561342  -0.041934799403 0.09297795593740001 -0.440330862999  -0.115356497467 0.128115877509 0.0303980205208  -0.08144567906859999 0.192924261093 -0.0396481454372  -0.0503155887127 -0.140062868595 0.370642662048  0.0181560348719 -0.191118896008 0.319997102022  -0.09442232549189999 -0.0766885429621 0.347179293633  -0.10306725651 -0.0245223585516 0.261891931295  -0.0371639840305 -0.192689821124 0.258922994137  -0.08778057992460001 -0.193450272083 0.293951839209  -0.116932563484 -0.137108251452 0.278956532478  -0.0434515699744 -0.19969072938 0.340430229902  -0.016621209681 -0.143479332328 0.208528921008  -0.0799133181572 -0.177766740322 0.206858798862  -0.0340202823281 -0.07231882214550001 0.405357718468  -0.153045728803 -0.0703692808747 0.28540495038  -0.0647673308849 -0.069349065423 -0.297796696424  -0.0468406006694 -0.118580199778 -0.331259429455  -0.0636249184608 -0.122360698879 -0.235275790095  -0.137311711907 -0.115820750594 -0.279358655214  -0.25 -0.25 0.333333333333  -0.00222280388698 -0.0275516584516 -0.327156513929  0.0233143884689 -0.124395690858 -0.330935031176  -0.00544846989214 -0.0444226972759 -0.392852008343  -0.07202984392639999 -0.0450558848679 -0.379192590714  -0.128861442208 -0.0482712239027 -0.325591087341  -0.0319190612757 0.25 0.27473160228  0.0259018652141 0.196524605155 0.343851953745  -0.0424101948738 0.196461260319 0.324036180973  -0.08801463991400001 0.193724930286 0.280150324106  -0.051391992718 0.129726842046 0.244459152222  0.0793330296874 0.131078347564 0.273738384247  0.0304427426308 0.197590425611 0.258007407188  0.139736711979 -0.103549621999 0.308288753033  0.117407329381 -0.00031748006586 0.284001767635  0.17845864594 0.0137020656839 0.2717012465  0.133446916938 -0.07468281686309999 0.252671837807  0.193237304688 0.0103836003691 0.32706490159  0.108656100929 -0.016409387812 0.370573759079  0.195593327284 -0.0705924406648 0.374003827572  0.204297035933 -0.0882691517472 0.283604085445  0.15987212956 -0.0232784096152 0.211559042335  0.103109702468 -0.0715631917119 0.185957938433  0.25 -0.177950121638 0.0405701099774  0.25 -0.111295968676 -0.00354384794953  0.168315500021 -0.181550845504 -0.0129796266556  0.203061833978 -0.0839376300573 0.0201103240252  -0.123973377049 0.0421161539853 0.0831994190812  0.10652089864 0.041568480432 0.133020982146  -0.00508088478819 0.00464248098433 0.118765294552  0.0384838804603 0.0542355030775 0.219570666552  0.0556482039392 0.09942726045850001 0.165778696537  0.25 -0.25 0  0.25 -0.17904445884 -0.0421267671166  0.0085972994566 0.139411628246 0.206887423992  -0.0427397117019 0.0734880268574 0.199836358428  0.25 -0.25 0.166666666667  0.177338154858 -0.25 0.209433902167  0.178222204231 -0.25 0.126578397361  0.180748909712 -0.154124230146 0.180074676871  0.118582360446 0.0498475395143 0.233844980597  0.113276541233 0.115120351315 0.208414897323  0.068451166153 0.123325429857 0.09300038218499999  0.08695217221980001 0.18308262527 0.11987875402  0.1366494596 0.0978636816144 0.125807240605  0.0170362386853 0.165571182966 0.116205818951  -0.075325883925 -0.13042730093 -0.120773427188  -0.191016584635 -0.1764793396 -0.0778442546725  -0.102759346366 -0.20253264904 -0.07015967369080001  -0.126150563359 -0.115044787526 -0.0573479756713  -0.138729035854 -0.104583211243 -0.134180948138  -0.147993162274 -0.138949289918 -0.203295826912  -0.180331096053 -0.192031860352 -0.160557568073  -0.194399222732 -0.0846866071224 -0.148938387632  -0.11259970814 -0.078034222126 -0.193649172783  0.0326924659312 -0.122268341482 0.0296003930271  0.0215157996863 -0.180560961366 -0.0757267251611  0.0956164896488 -0.0493310950696 -0.0164182558656  0.112129375339 -0.112067811191 -0.105549775064  0.127802968025 -0.106147237122 -0.0110959038138  -0.0854129120708 -0.015297700651 0.056893799454  -0.0204317308962 -0.0795602425933 0.117458000779  -0.178222204231 0.25 0.126578397361  -0.177947182503 0.25 0.0435581305687  -0.107976816083 0.25 0.0905854563709  -0.157577678561 0.178241759539 0.0969507619739  0.25 -0.25 0.333333333333  0.25 -0.25 0.25  0.175776260788 -0.25 0.294629825204  0.25 -0.175495340629 0.295351832328  0.0932372882962 -0.0430554822087 0.0724518448114  -0.044769000262 -0.00661279587075 0.403999477625  -0.194478780031 -0.0247275307775 0.332954645157  -0.173761367798 -0.0806607827544 0.396263659  -0.137637495995 0.00523930834606 0.315887242556  0.0864742994308 -0.139340251684 0.176064118743  0.105438224971 -0.136641919613 0.253711819649  0.0308670303835 -0.25 -0.136809572586  0.0367561832589 -0.25 -0.219583441074  0.0925811678171 -0.20055809617 -0.19996842742  0.0127155454829 -0.193433105946 -0.225977659225  0.0415658205748 -0.200880005956 0.196522325277  0.0373581312597 -0.119548290968 0.120048768818  -0.0954102815882 -0.25 0.346414074494  -0.101368582479 -0.25 0.251933327382  -0.0374909392175 -0.25 0.286229296012  0.0852289572358 0.109103307128 -0.27055695653  0.07707493752239999 0.127253636718 -0.199824258685  0.128097131848 0.07648140937090001 -0.209757223725  0.154867321253 0.13628205657 -0.212952241302  0.08678253740069999 0.189277544618 -0.274375885725  0.127699971199 0.0803090333939 -0.326344817877  0.0577741526067 0.0601542405784 -0.31936660409  0.0525139421225 0.129102528095 -0.326874881983  0.0251371748745 0.175572559237 -0.261228203773  0.0199144631624 0.0927290171385 -0.265960127115  -0.148952946067 -0.121583275497 -0.374568909407  -0.25 0.177950121638 0.0405701099774  -0.25 0.111295968676 -0.00354384794953  -0.175531774759 0.135734900832 0.0562076568604  -0.178730383515 0.191659659147 -0.00562386959791  -0.0244714934379 -0.108516678214 -0.387223660946  -0.09279609471560001 -0.170035287738 -0.445968538523  -0.0281062982976 -0.0
[...]
<PointData  Vectors="f_78"> 
<DataArray  type="Float64"  Name="f_78"  NumberOfComponents="3" format="ascii">7.6102823061592852e-06 1.6204495458597738e-07 -4.6282797785918888e-03  -3.0312577221136234e-06 4.1698033883846151e-06 -4.5839221689321632e-03  -5.1233479466115779e-06 -1.0996879019986788e-05 -4.3829080763153928e-03  -1.8295045648627192e-05 6.8069590689072930e-06 -4.0923625206516377e-03  -1.3182401770907439e-05 -8.4676235965852071e-07 -4.6270641929428676e-03  1.1641563753240234e-06 1.8762705482282911e-05 -4.2519093501382377e-03  -3.9580368987898217e-06 6.2768045676759771e-06 -4.6293991957516651e-03  4.4719289541557720e-06 7.3876333931159704e-06 -4.3055680184664576e-03  -8.8056235417171571e-06 -6.1544411441987403e-06 -4.6045787873599210e-03  -1.2378172269805142e-05 2.1276560053666272e-05 -3.8342872658659695e-03  -2.2799169582825718e-06 7.0407089149017074e-06 -4.6715946245419202e-03  -1.8399426055535132e-06 6.8157798314266061e-07 -4.6351655267272236e-03  1.9690000870454714e-06 7.8534234100288983e-06 -4.5754537399742634e-03  -1.1929642898888666e-06 8.0280545814031146e-06 -4.6048184852602540e-03  1.0528980610341412e-05 1.0143793690365568e-05 -4.4502751921108689e-03  3.3572918746088574e-06 1.7095227267567542e-06 -4.5158342128023294e-03  1.0439253408314445e-05 -1.2048531357702198e-06 -4.2833289114971775e-03  2.8020573842573216e-06 3.0378519878603794e-06 -4.6229485049373497e-03  4.0200679221393659e-06 -6.8496802521457712e-07 -4.6168796042379391e-03  7.0254667178214019e-06 5.1495179241373521e-06 -4.6630576934897222e-03  -9.9752894626343550e-05 1.2025744077515381e-05 -4.8632354386383223e-03  -1.5182294520063250e-05 2.9009541581133990e-05 -4.5227095112920597e-03  -1.8041515816134867e-05 1.4233542627729929e-05 -4.6776660903392062e-03  1.1616947245231838e-05 1.8360122008304109e-05 -4.6902346232304808e-03  4.5043548621221893e-05 2.4161707016250675e-05 -4.9299177994408172e-03  -1.2149979333678665e-05 8.3484216972334389e-05 -5.1102673840169284e-03  2.7245259803368212e-05 1.5502467880523186e-04 -4.1182741591451492e-03  -2.0522296060334331e-07 1.0917231005221226e-04 -4.5121605877158867e-03  -6.8992796374719214e-05 7.4464096717181028e-05 -4.5169752037315537e-03  -1.7356315027730076e-05 3.0479224201926936e-05 -4.5946192486890315e-03  5.4176024833325276e-06 4.5073715332982627e-05 -4.4809583331731446e-03  -1.6726786837286633e-05 1.8486643900499772e-05 -4.5230194369936241e-03  -1.8662566730459237e-06 4.4009606830747376e-06 -4.6261753508156063e-03  -9.7149398607221829e-06 1.1881715609814957e-06 -4.4504358406535485e-03  -1.0521479105010952e-05 -2.4412066348755349e-06 -4.4738573514991374e-03  -6.4159006409310421e-06 2.9107413326975799e-06 -4.5285644994879958e-03  -3.0606931132858157e-06 8.0913221957741357e-06 -4.5671719509735717e-03  6.3858576224796755e-06 -5.7150462641216810e-06 1.9747115653135193e-05  3.5582704964508337e-06 -1.0048434993763042e-05 8.8061500842152601e-06  5.3224900130474232e-06 3.5383443683529943e-06 1.1888704348299512e-05  -7.4016290697029438e-07 -4.3754259193659643e-07 9.1235425035732995e-06  -1.3042706343432415e-05 1.3088166737418207e-05 -4.2457735108902446e-03  1.3863913101757488e-05 1.3559983503247425e-05 -4.5522197403399887e-03  1.5877417020603108e-06 6.8792430729199774e-06 -4.6675435695219380e-03  -6.8963910512106270e-06 -1.6956011691399318e-06 -4.4460253287450157e-03  1.9983789401790599e-06 -6.1284478166669202e-06 -4.2599331021712919e-03  1.0066741632781889e-05 -8.2478789524759683e-06 -4.6789498190134872e-03  -1.1437026020232724e-05 -2.6717249823219876e-05 -4.4493837210541698e-03  -7.9382347004006509e-05 -5.1371750564571385e-05 -4.7569403228569810e-03  -9.5679068655371156e-06 -5.1101991305573187e-06 -4.3136952037531717e-03  7.6708007339179243e-05 -9.0038822851283470e-05 -4.5237182943198657e-03  -8.3292873995622848e-07 -9.4309847509612638e-06 -4.6131376572920504e-03  -9.1213898071600030e-07 3.2544225389214011e-06 -4.5273928495255964e-03  -3.2801229595947099e-05 -3.3481145401498032e-05 -4.2033119451090799e-03  -1.6671186485711476e-05 -2.2243157315545127e-06 -4.5124646341388299e-03  -1.2075622990282656e-05 1.0800479982052900e-05 -4.3782238649000974e-03  4.0544356212022637e-05 6.2558192766545842e-05 -3.1733648695108862e-03  -8.3460834395799535e-06 6.7075731336520890e-06 -4.0813828303328855e-03  -3.4319335125189028e-05 1.4701761643436588e-05 -5.0457770095793091e-03  -9.0404112574865223e-07 -7.0721041914173093e-07 -4.5610302147064815e-03  -4.1082612513227249e-06 6.0212822028373521e-06 -4.6343136906187733e-03  1.1808637964321674e-05 1.9895437854213253e-05 -4.6396296906489167e-03  1.7033371124494558e-07 5.5653264207627104e-06 -4.5203446821691709e-03  -6.0396052711462698e-06 2.8564405184066568e-06 -4.6741373010437161e-03  -1.3227241651547291e-06 -2.0828361886619098e-06 6.2961377319513158e-08  6.6441421708092447e-05 3.6651263965438865e-06 -2.9475113266686590e-03  -2.0384248173790281e-05 -5.5591203644791734e-05 -3.4656571115893506e-03  -2.3400000316970296e-05 2.1625549714319119e-05 -3.4407772967990575e-03  -6.8383515121845667e-06 1.3062943251796079e-05 -4.5719117154586625e-03  -1.7066734757688593e-05 5.5892167053782228e-06 -4.4573376939491920e-03  3.4222100591074210e-07 7.8457988480389457e-07 6.7524116689700921e-07  -1.2722023479702727e-06 2.4488937035765602e-07 -3.3255251236744390e-07  -3.6660331364471936e-06 2.6503413384668783e-06 -4.6866067502254706e-03  -6.5213331266368136e-06 -3.5252262255973076e-06 -5.3960779054293039e-06  -1.7128028877306357e-06 4.5916645928617949e-06 1.5741524138385622e-06  7.3584652687517813e-06 8.5133582961226946e-07 1.7143352050554124e-06  1.7213119538195679e-06 -4.4921419821982028e-05 -2.6141023849156307e-03  3.7148185535809360e-07 2.5365921481504074e-07 2.0349820619619377e-06  -8.0764118435150311e-07 -9.1238605223525795e-07 2.6899642433318325e-07  -5.9476713950514792e-07 2.6446988759926813e-07 4.4167322943436138e-07  -1.4797994389638823e-05 1.2583882619072548e-05 -3.4566106100992668e-03  -2.2899966541953118e-05 -3.4970284744254789e-06 -4.3348188938684548e-03  1.9916547489540917e-06 2.5074363548992130e-06 -4.6781534718002395e-03  1.0495752322989046e-05 -8.9034740451022023e-07 -4.4948127558713438e-03  -5.7248927994031621e-06 -1.5737209379897045e-05 -4.3583733613500623e-03  1.2349784935364687e-05 -4.6598623345516321e-05 -3.5097367541685686e-03  6.5715607194155563e-06 -4.6092488122080951e-06 -4.5506671459718895e-03  8.0695598745321744e-06 -3.9844021941996322e-05 -4.4541838270284375e-03  -1.0864501950247358e-05 -2.7317269153669583e-05 -4.2976159501100291e-03  -4.0208097731670316e-05 6.1911075953758476e-06 -3.0917228629866525e-03  4.2324627866119010e-05 -8.2815001778889968e-05 -4.3330729726286689e-03  -1.8670649623749053e-05 1.8592457613929945e-05 -3.7725840552730230e-03  -4.8449499294655557e-05 -1.4539996934964195e-05 -4.3196931267382010e-03  -1.5807235364182208e-05 -7.6067071560021672e-06 -4.5267759909014375e-03  -2.9440678263062427e-05 2.0381578636481839e-05 -3.6835274510295677e-03  -4.2955018224593361e-05 -1.1937387310753951e-04 -3.5305708199322131e-03  -3.5611847550299984e-05 -2.5821316198004688e-05 -4.0843120445118331e-03  3.9666529702836616e-05 -2.6550934923477786e-05 -3.3227370771211225e-03  5.7920595825007965e-06 4.8265559232459241e-06 -4.4658371253772340e-03  -5.6364018084987581e-06 3.9271586200246700e-05 -3.7023420371395709e-03  -7.2280582527530694e-05 1.2417498182348801e-05 -4.7039374224258764e-03  2.4175685527612313e-06 1.0202745918156701e-05 -3.2928851106879022e-03  1.0602046701777597e-05 7.7964295622828267e-06 -4.5210466727418413e-03  7.8106612777706141e-06 7.1842594735146782e-06 -4.4124089581773574e-03  5.0309312812725835e-06 -5.0483046631341007e-06 -4.1762305626169257e-03  -4.7476393360045156e-08 1.2938537818169986e-05 -3.9391892639019394e-03  -1.2950685381983744e-06 -1.1805372311069377e-06 2.9816851871512118e-06  7.0509140290831309e-06 4.9740855673270252e-06 -4.5872464307618712e-03  -1.2349261324290929e-06 1.3096825613460595e-05 -4.6046367469249495e-03  4.4479132929081088e-06 1.9184427678538042e-05 -4.5484418480588110e-03  8.2927293483829982e-06 1.7341430151067511e-05 -4.4351479730681221e-03  1.1579807660352588e-05 1.0869693633129654e-06 -3.7852014805897327e-03  8.2201560418380359e-07 2.0840536093717440e-06 5.3925209806902239e-08  3.4247936474635007e-05 8.3577455047240641e-05 -3.8539764403727307e-03  -9.8215581394373123e-05 8.4382284202471716e-05 -3.0220307140432496e-03  7.9945901850041133e-05 -4.5841581543154619e-05 -3.3922364563314950e-03  -5.5150223165081696e-06 2.8453777652014774e-05 -4.5876395303622022e-03  -1.3061703163026014e-05 9.9332002005997585e-06 -4.0092083628438602e-03  1.3150155841041705e-05 -5.7356250063403162e-05 -4.0057504885506875e-03  3.2283369392643585e-05 -5.3818474357679617e-06 -4.3163448990168581e-03  5.4773745115525728e-06 3.2652067142134522e-05 -4.5432926739062129e-03  4.9999633705321428e-06 -7.3862645814501083e-06 -3.3202821698915942e-03  -2.7613673556173843e-05 3.3026154329322945e-06 -3.7246682702540071e-03  -1.6585195359206884e-05 7.6638369052086688e-06 -3.5116022289205548e-03  7.2075762574358860e-05 2.4945972651739769e-05 -4.7193380986194494e-03  8.6346422414498443e-05 4.1202582616596646e-05 -3.6161171575831482e-03  1.4985679767750551e-06 3.5475770833653447e-05 -3.9766438873427420e-03  -3.5247218819590238e-05 8.4704524154431841e-06 -4.2320495106265722e-03  -1.5559428071933299e-05 -4.3058087339307280e-06 -4.0463996147505179e-03  3.1062361948072366e-06 -1.9429558709010191e-06 -6.5604664623180905e-07  6.5992446071080467e-08 -1.1578232319514764e-06 -1.8078554033128646e-07  -1.0660270893647323e-04 7.6774490476133402e-05 -3.6364940411607316e-03  5.9466096585228601e-05 -4.2223123635587633e-05 -2.9688725541573056e-03  1.5380096395181237e-05 1.1001780794181190e-05 -4.4031048099861360e-03  4.5073885704574461e-06 7.7951218496682701e-06 -4.3676807977975716e-03  -3.6478645348066279e-06 4.4336294503918553e-06 -4.6187822549574112e-03  -2.1283792478913794e-06 1.4250299547802863e-05 -4.6298631148752089e-03  8.4805757297305626e-06 -2.4262886598939611e-06 -4.5261881676917914e-03  -1.3541164338868173e-06 -4.7202906823272043e-07 1.3977980275136670e-06  -2.8117322223677291e-06 -3.6131734834758894e-08 -1.6606400164148220e-06  -1.4521461183830422e-05 5.5147003869995237e-06 -3.9741489913841157e-03  -2.2028069000193517e-06 1.9834837272017509e-05 -4.5018088746700147e-03  3.8619672199821620e-06 -3.2330945962865706e-06 6.4986857301860523e-07  1.5162653291072878e-06 -1.9271718958633642e-07 1.6079100206081012e-07  3.2231922945702838e-07 3.0954799901056973e-06 8.4617755856766164e-07  -1.1405346391353103e-05 1.9021039202864133e-05 -3.6540865368336348e-03  8.7605366166634132e-06 1.9201556167080111e-05 -4.3397321991735611e-03  9.3677564668867204e-06 -7.0423157764861331e-07 -3.9502256004344104e-03  -7.3383418728566976e-06 8.5621628704334472e-06 -4.4556930384452914e-03  2.6065077866436578e-06 -2.0422079744223999e-05 -3.7304303658824115e-03  -1.1302131684044143e-05 -3.4843363313818942e-05 -3.5000920361182904e-03  4.0522410210077911e-05 6.6427308641458033e-06 -3.5243496948996829e-03  -2.6430055545207787e-06 1.3394452910121166e-05 -4.1638204086682845e-03  -7.0755175891828442e-05 -5.7270162161667651e-05 -3.4975857803908753e-03  2.5313634506399516e-05 -4.2783535346042494e-05 -2.9065808979755812e-03  -2.1358430565830817e-05 -2.3522017285084039e-05 -3.9596647681726374e-03  2.0363473698792004e-06 2.4026224366587792e-05 -3.6181792387268460e-03  2.0182225226585081e-05 -6.1051419413710671e-06 -3.8433219375667259e-03  1.8281082594046640e-05 3.9145653567231221e-06 -3.0243183510708150e-03  -8.9481254598285571e-07 -7.0229501000361600e-06 -3.7116154468385012e-03  1.6075094009916565e-05 -2.3663133132281644e-06 -4.2954057333220025e-03  -8.0855393224968213e-06 -5.8112364651480435e-06 -4.3867997418036231e-03  -1.2884867223814059e-05 1.7436571344500720e-05 -2.8949556637175790e-03  1.2017569043630471e-05 -4.9559481842113827e-06 -4.3316946843521935e-03  1.7415718729020433e-06 -1.1103785385099133e-05 -4.0915257483329194e-03  -2.8085533016552626e-06 8.5270512689252928e-06 -4.2246899321479597e-03  4.8300279095023785e-06 -2.9441418612498095e-06 -4.5748817603059886e-03  -7.0993630013722821e-06 -6.7746308470667736e-08 -4.6421404393931793e-03  -1.2094462106606748e-06 -2.1655297655688264e-06 -4.4523192420284572e-07  7.1609488655011266e-08 -4.5415807485868345e-06 -8.0735360261000402e-08  2.4714075596666100e-06 -1.5442749581384803e-06 1.2615699823658639e-06  5.0675681351241163e-06 3.1418643393920275e-06 -3.2469676151459827e-03  2.6974185399086980e-06 -1.1647768863009151e-06 4.2037656639241516e-07  -1.2140581267108801e-06 -2.5465533986830864e-06 -2.0122375814498425e-06  2.0558647693276431e-07 1.6036258927336359e-06 3.8209461560062060e-07  -1.4028603398987464e-06 -1.0898040913517891e-06 -1.3497990738934492e-06  -1.1853252655996215e-05 9.1006205221919075e-06 -4.4282520951053382e-03  -7.6787622840828221e-06 2.3138402426377432e-06 -4.9686361593708917e-03  -2.8548024019023605e-05 -7.6827839247024226e-05 -2.8808584065672669e-03  -9.4582448246680886e-05 -3.4709109895092960e-05 -4.1341765111814989e-03  1.5362818386418711e-05 -1.1299155439315714e-05 -4.0766731092539751e-03  6.0897355022940489e-06 1.3471706033283077e-05 -3.7074401724967150e-03  2.0048971101401376e-07 -2.2493097074254467e-05 -4.2584298016951679e-03  -2.4644485619957497e-09 -8.7919492351777651e-07 7.3397918790342933e-07  1.8883174717809338e-06 6.0636761193769055e-06 1.4082463109080489e-06  8.4781927884219492e-05 -8.6317389829970341e-05 -3.3256247446530724e-03  -3.0107977058000988e-05 1.6724424713755113e-05 -2.2496958175299659e-03  -7.7550295084379323e-06 -1.4611630455410880e-05 -3.9997716777770125e-03  -1.4908593843962975e-06 1.7620238570695897e-05 -4.2773108592420259e-03  8.1559157630975848e-07 7.4714428902090838e-06 3.4890881715694227e-06  1.4128926962463639e-07 -2.2582749605028164e-06 1.3426702250566525e-06  -2.2554095311982641e-06 -4.2756054418998928e-06 -3.4444906310903663e-07  1.4290100635985104e-05 -3.2894065136313763e-06 -4.3908832733765210e-03  2.1558020387215028e-06 -1.1278333056555736e-05 -4.3977540595327939e-03  9.9737057898112632e-06 2.4121533290163032e-06 -4.2186525905671584e-03  3.4393412525899034e-05 1.7863714152064438e-05 -3.8215753196712376e-03  3.6327576982471721e-06 -4.8043561389168260e-06 -3.6849829333313764e-03  1.2721404987237014e-06 -6.6418138414088048e-07 -4.5280407963243551e-03  2.3224111690812565e-06 -4.6524480223866922e-06 -4.5542513763837597e-03  -7.9315522453272934e-06 -9.8603414440355282e-06 -3.9382999380234065e-03  -1.2770960971083107e-05 -1.0309431394232002e-05 -4.2117973075164114e-03  6.1622043885891581e-07 2.7844445860956208e-06 -4.5959123238621131e-03  1.8646850259001726e-05 -2.2966127665597779e-05 -3.9899149554716434e-03  2.6404515799448976e-06 -1.4832040424115027e-06 4.1151503181558626e-07  -4.6877463295766565e-06 -1.7704229598202193e-06 6.2568671110511316e-07  5.6963016836803974e-05 -7.1244958710858244e-05 -3.2284675383491917e-03  -5.5912545345424000e-05 -6.0386601306193627e-06 -3.2298551339739160e-03  2.2856770652740780e-06 5.5708622775930004e-05 -4.1382648266073997e-03  1.8427271022125877e-06 4.4718979618136658e-05 -4.0255168797017696e-03  9.7086261160218043e-06 3.1852040531478164e-05 -4.5263344878537339e-03  -3.5786248515389611e-06 6.5488011527624025e-07 -1.1801429162110797e-06  1.6089329076695529e-06 9.9896805811801040e-08 1.9053435413283888e-06  1.3006500714906499e-06 -3.1278838967503780e-05 -4.4747971802276878e-03  2.3213929391934421e-05 1.3051466436521486e-06 -3.3329035955950632e-03  -6.5485540783785364e-06 -1.8600755404265898e-05 -3.0273581406968365e-03  -1.2992253369555690e-05 2.9862885502118706e-05 -4.0599582800102179e-03  3.9898937737883521e-06 3.6869901753084077e-06 -4.5988769965774265e-03  1.8569718594527311e-06 2.3275741340804736e-07 -5.7636008889954856e-06  2.2333318651141511e-07 8.8899507483856855e-07 -3.3661569965482056e-06  -3.6176953070946212e-07 -7.6654326683563527e-08 4.9357804431442424e-07  1.8640041400817824e-05 -5.7733076555632199e-07 -3.7260589749500213e-03  6.2293072196030272e-06 3.6819766728953407e-06 -4.5354580442857183e-03  3.3774649191471082e-06 5.2000580869810541e-06 -4.6034549429906655e-03  -6.4405403775742579e-07 2.0617964589058123e-06 -3.9731456635329994e-03  1.0210090834527631e-05 3.1443711081595549e-06 -4.5188304999883508e-03  -5.4015058359021544e-06 -5.9854122249031554e-06 -4.5547403277828857e-03  1.9795932081053717e-06 8.1635870905412844e-07 -4.3841103797719501e-03  -6.8164642481117798e-08 9.1963434298081112e-08 -2.2789454216547392e-07  -8.3712889966903354e-07 -3.3320345446762389e-07 3.3476576642993663e-07  -1.7670561449378734e-05 -1.2673643876959527e-05 -3.4166789644747698e-03  2.9360473187638550e-06 8.1190159873797208e-06 -3.3105801420714519e-03  3.2081348055211354e-05 -1.1681095686991883e-05 -4.3529972225307577e-03  1.3544097929440740e-05 -5.5835857978192310e-06 -4.3497795369065390e-03  -1.3574225988242817e-05 -3.8977664128859227e-06 -4.5299807823330814e-03  -1.8231946620839679e-06 -5.7065790460104432e-06 -4.0235477142398996e-03  -1.3221789308901102e-05 1.6533330338423874e-05 -3.9455109636005710e-03  -2.5907266905982902e-05 2.7375505084881937e-05 -3.9181272940144226e-03  -6.8009427198453091e-05 5.5003722244196363e-05 -4.1628255064959409e-03  1.6940399566325302e-05 2.5759627790364239e-06 -4.5837011235370442e-03  4.0952451298039768e-05 2.0988340567982408e-05 -4.6665860260491840e-03  2.5296234253511001e-05 4.6436332635502207e-06 -4.2015885325085009e-03  4.1431101027925837e-07 9.0013557337158419e-07 -4.5776925387299603e-03  2.7681270502445653e-05 -1.3604444064591175e-05 -4.4985980513061940e-03  1.1475128465728330e-05 -1.8468835859879771e-05 -4.5592886030185499e-03  5.0996901382904561e-06 -6.2609087552855824e-06 -4.5952757745337091e-03  1.4052320136435626e-05 8.0314159620303669e-06 -4.1183643168107740e-03  -8.0687292684109196e-06 6.7281920350082376e-06 -4.1308357036625382e-03  2.1201142212605427e-05 -1.7331376180790501e-05 -2.6378428516195388e-03  -3.2771261200032308e-06 -9.8692804136880971e-06 -3.9222883388414804e-03  -9.5743694884633969e-06 -1.9845263250592590e-05 -4.4864573807486983e-03  -3.2403592917462714e-05 -4.0984805296622307e-05 -4.1722124218181071e-03  3.6037373942816586e-06 3.9117655776267719e-05 -3.9103595990483686e-03  -3.0740363142537010e-05 1.0960354226241381e-06 -3.6310670209930944e-03  -1.5511104254102338e-05 -1.5509945934565673e-05 -4.2526199043091710e-03  -1.7865791915988469e-05 -1.3359313318607257e-05 -3.1803476209846149e-03  9.3310321481142813e-05 2.9250417382014211e-05 -3.2024528413247904e-03  -2.1914102368301370e-05 1.9076699899580720e-05 -3.0286248663262965e-03  2.9064921146256357e-05 -6.7359140461970075e-05 -4.0157359978750928e-03  3.7874664642851603e-05 7.4937219102003013e-06 -4.2266135490259243e-03  -2.1598285414173903e-04 -3.1736855103073143e-05 -4.1425864275272872e-03  -1.1347180924102084e-04 -2.9524150006489591e-05 -3.8642397771184432e-03  4.6801874743288083e-07 -6.3856699099946120e-07 3.0098090399875977e-07  -9.7473263396779239e-07 -9.1528526754527260e-06 -7.2261560641407506e-07  -1.6611808785989518e-06 6.0821709228203770e-06 4.9362904797383584e-07  2.9523093042408059e-06 -1.9791079768907002e-05 -3.5442762378336077e-03  1.5637431022470566e-05 -5.9609691435775597e-05 -4.3257071798722393e-03  -7.8108309398472468e-06 -8.0740744757714744e-05 -3.9810576351793194e-03  -6.0560200301390420e-05 -5.9664170807009755e-05 -3.9784226446347810e-03  -1.2017667869577503e-05 2.7953170670820644e-05 -3.4841192578879605e-03  2.2470041051003312e-05 1.5991449214968707e-05 -4.4714965558488766e-03  8.2405947541479220e-05 5.2685808378705319e-05 -4.3452919639197533e-03  3.1315958441517042e-04 -1.1797159966177380e-05 -3.1286224793152257e-03  -7.1339029386104955e-06 2.5439145498817321e-06 -3.6078747280476409e-03  2.2056956472003706e-06 3.8343313602180832e-06 -5.5738890963946838e-06  -6.1344193724130148e-07 3.7347947268832622e-06 -4.7333458223236094e-06  4.8793236917815587e-06 9.3405256217443981e-05 -3.9729250021425210e-03  -1.1137037761363587e-06 4.4091272300399052e-06 -4.053517371313752