<?xml version="1.0"?>
<VTKFile type="UnstructuredGrid"  version="0.1"  >
<UnstructuredGrid>
<Piece  NumberOfPoints="857" NumberOfCells="3763">
<Points>
<DataArray  type="Float64"  NumberOfComponents="3"  format="ascii">-0.0182597916573 0.126128911972 -0.119588643312  -0.0077641364187 0.0512270443141 -0.07050477713349999  -0.0237180162221 0.16240182519 -0.053058128804  -0.107877351344 0.105669431388 -0.0502408407629  -0.0444478429854 0.116080775857 -0.00235075876117  0.0393674038351 0.112876079977 -0.0491501875222  0.0248903874308 0.0489483103156 0.000152088920004  0.0314915925264 0.114928804338 0.0218031276017  -0.0657326281071 0.0685198307037 0.0497140102088  -0.0355357266963 0.164656624198 0.0508319064975  -0.010538729839 -0.0422629192472 -0.208358153701  -0.0239527057856 0.0135364839807 -0.242119863629  -0.0194642152637 -0.0775559768081 -0.263431429863  -0.08492307364939999 -0.0108216870576 -0.280446648598  -0.08293507993220001 -0.0361198186874 -0.159778758883  -0.0240796487778 -0.0824203491211 -0.148982465267  0.0430508553982 -0.121076337993 -0.234084427357  0.0307756774127 0.0324950888753 -0.198437720537  0.00352357281372 -0.00433266581967 -0.144715368748  -0.0456651262939 0.08372022956609999 0.342343091965  -0.116630032659 0.0117083769292 0.386158525944  -0.08223126828669999 0.0577075146139 0.289406776428  -0.0511222109199 0.00205342215486 0.300772219896  -0.0125984866172 0.0267426930368 0.351842552423  0.0303636882454 0.0561947338283 0.391145974398  -0.0524924062192 0.0543583929539 0.40361738205  -0.07944945245979999 0.130002260208 0.441037595272  -0.000730989675503 0.119443200529 0.385622620583  -0.078488714993 0.137875169516 0.332541137934  0.0142801422626 0.110509291291 0.27100610733  0.0224165506661 0.08303219079970001 0.331783413887  -0.0170432701707 0.161798536777 0.30022162199  0.000811119796708 -0.0515509881079 -0.08419398218390001  0.0888616070151 -0.015075173229 -0.0776951387525  -0.0989535748959 -0.0518730916083 -0.08125374466180001  -0.0433920919895 -0.09785594791170001 0.0106235472485  -0.0488061010838 0.0295096840709 -0.0131453983486  -0.25 0.25 0.5  -0.166666666667 0.25 0.5  -0.25 0.195066730511 0.445658150344  -0.19506166517 0.25 0.445542865294  -0.0213422998786 -0.126349791884 -0.045622177422  -0.117952652276 0.0158270020038 -0.16616243124  -0.0531469397247 0.0490713231266 -0.13630309701  0.0358348339796 -0.131537660956 -0.134171053767  0.0583617314696 -0.115307979286 -0.0462360456586  0.010585160926 -0.0606908276677 0.314250290394  0.078067921102 -0.133790805936 0.331458956003  0.0206208750606 -0.104583717883 0.36723652482  0.0300164371729 -0.13569638133 0.270959883928  0.0797956883907 -0.07311873137949999 0.388136893511  0.0291880238801 -0.0850581228733 0.220644980669  0.0788302049041 -0.07555303722620001 0.284453928471  -0.0465739220381 -0.108428947628 0.305151432753  -0.056692365557 -0.0812899768353 0.234353885055  0.10282895714 0.0630551427603 -0.0452189296484  0.178613707423 0.153893724084 -0.0703043565154  0.0750898644328 0.130835875869 -0.116260357201  0.0179002508521 -0.0400723591447 0.396018892527  0.07961820065980001 -0.020668130368 0.232235535979  -0.00726175494492 -0.022667773068 0.242156982422  0.0524490773678 0.0171752162278 0.310696065426  0.0103002395481 0.0813155695796 0.107229083776  0.00225681974553 -0.008687185123560001 0.0457225777209  0.177950121638 0.25 0.0405701099774  0.151375159621 0.202163234353 -0.00268407491967  0.13042794168 0.172564610839 0.0599601529539  0.184557154775 0.16295710206 -0.00737970136106  0.0827306732535 0.011830884032 0.0299163535237  0.106673434377 0.0676268041134 0.0663062110543  0.25 0.25 0  0.25 0.177947182503 0.0435581305687  0.0251978598535 -0.0201241951436 -0.0233656335622  -0.25 -0.25 0.25  -0.175495340629 -0.25 0.295351832328  -0.25 -0.175776260788 0.294629825204  -0.164853364229 -0.189889326692 0.246240898967  0.111295968676 0.25 -0.00354384794953  0.0417815256417 0.25 0.0264120515999  0.0577150444892 0.25 -0.0418173710713  0.035034801811 0.196921139956 -0.0497792549431  -0.115254960954 0.0352221727371 -0.0357825122774  0.0360979661345 0.0743419006467 -0.130612716079  0.08110298216340001 0.0143552683294 -0.135737240314  0.0281950440258 0.110801942647 -0.38559025526  -0.000352636008756 0.154027625918 -0.45018479228  0.0220217909664 0.07910815626379999 -0.445265561342  -0.041934799403 0.09297795593740001 -0.440330862999  -0.115356497467 0.128115877509 0.0303980205208  -0.08144567906859999 0.192924261093 -0.0396481454372  -0.0503155887127 -0.140062868595 0.370642662048  0.0181560348719 -0.191118896008 0.319997102022  -0.09442232549189999 -0.0766885429621 0.347179293633  -0.10306725651 -0.0245223585516 0.261891931295  -0.0371639840305 -0.192689821124 0.258922994137  -0.08778057992460001 -0.193450272083 0.293951839209  -0.116932563484 -0.137108251452 0.278956532478  -0.0434515699744 -0.19969072938 0.340430229902  -0.016621209681 -0.143479332328 0.208528921008  -0.0799133181572 -0.177766740322 0.206858798862  -0.0340202823281 -0.07231882214550001 0.405357718468  -0.153045728803 -0.0703692808747 0.28540495038  -0.0647673308849 -0.069349065423 -0.297796696424  -0.0468406006694 -0.118580199778 -0.331259429455  -0.0636249184608 -0.122360698879 -0.235275790095  -0.137311711907 -0.115820750594 -0.279358655214  -0.25 -0.25 0.333333333333  -0.00222280388698 -0.0275516584516 -0.327156513929  0.0233143884689 -0.124395690858 -0.330935031176  -0.00544846989214 -0.0444226972759 -0.392852008343  -0.07202984392639999 -0.0450558848679 -0.379192590714  -0.128861442208 -0.0482712239027 -0.325591087341  -0.0319190612757 0.25 0.27473160228  0.0259018652141 0.196524605155 0.343851953745  -0.0424101948738 0.196461260319 0.324036180973  -0.08801463991400001 0.193724930286 0.280150324106  -0.051391992718 0.129726842046 0.244459152222  0.0793330296874 0.131078347564 0.273738384247  0.0304427426308 0.197590425611 0.258007407188  0.139736711979 -0.103549621999 0.308288753033  0.117407329381 -0.00031748006586 0.284001767635  0.17845864594 0.0137020656839 0.2717012465  0.133446916938 -0.07468281686309999 0.252671837807  0.193237304688 0.0103836003691 0.32706490159  0.108656100929 -0.016409387812 0.370573759079  0.195593327284 -0.0705924406648 0.374003827572  0.204297035933 -0.0882691517472 0.283604085445  0.15987212956 -0.0232784096152 0.211559042335  0.103109702468 -0.0715631917119 0.185957938433  0.25 -0.177950121638 0.0405701099774  0.25 -0.111295968676 -0.00354384794953  0.168315500021 -0.181550845504 -0.0129796266556  0.203061833978 -0.0839376300573 0.0201103240252  -0.123973377049 0.0421161539853 0.0831994190812  0.10652089864 0.041568480432 0.133020982146  -0.00508088478819 0.00464248098433 0.118765294552  0.0384838804603 0.0542355030775 0.219570666552  0.0556482039392 0.09942726045850001 0.165778696537  0.25 -0.25 0  0.25 -0.17904445884 -0.0421267671166  0.0085972994566 0.139411628246 0.206887423992  -0.0427397117019 0.0734880268574 0.199836358428  0.25 -0.25 0.166666666667  0.177338154858 -0.25 0.209433902167  0.178222204231 -0.25 0.126578397361  0.180748909712 -0.154124230146 0.180074676871  0.118582360446 0.0498475395143 0.233844980597  0.113276541233 0.115120351315 0.208414897323  0.068451166153 0.123325429857 0.09300038218499999  0.08695217221980001 0.18308262527 0.11987875402  0.1366494596 0.0978636816144 0.125807240605  0.0170362386853 0.165571182966 0.116205818951  -0.075325883925 -0.13042730093 -0.120773427188  -0.191016584635 -0.1764793396 -0.0778442546725  -0.102759346366 -0.20253264904 -0.07015967369080001  -0.126150563359 -0.115044787526 -0.0573479756713  -0.138729035854 -0.104583211243 -0.134180948138  -0.147993162274 -0.138949289918 -0.203295826912  -0.180331096053 -0.192031860352 -0.160557568073  -0.194399222732 -0.0846866071224 -0.148938387632  -0.11259970814 -0.078034222126 -0.193649172783  0.0326924659312 -0.122268341482 0.0296003930271  0.0215157996863 -0.180560961366 -0.0757267251611  0.0956164896488 -0.0493310950696 -0.0164182558656  0.112129375339 -0.112067811191 -0.105549775064  0.127802968025 -0.106147237122 -0.0110959038138  -0.0854129120708 -0.015297700651 0.056893799454  -0.0204317308962 -0.0795602425933 0.117458000779  -0.178222204231 0.25 0.126578397361  -0.177947182503 0.25 0.0435581305687  -0.107976816083 0.25 0.0905854563709  -0.157577678561 0.178241759539 0.0969507619739  0.25 -0.25 0.333333333333  0.25 -0.25 0.25  0.175776260788 -0.25 0.294629825204  0.25 -0.175495340629 0.295351832328  0.0932372882962 -0.0430554822087 0.0724518448114  -0.044769000262 -0.00661279587075 0.403999477625  -0.194478780031 -0.0247275307775 0.332954645157  -0.173761367798 -0.0806607827544 0.396263659  -0.137637495995 0.00523930834606 0.315887242556  0.0864742994308 -0.139340251684 0.176064118743  0.105438224971 -0.136641919613 0.253711819649  0.0308670303835 -0.25 -0.136809572586  0.0367561832589 -0.25 -0.219583441074  0.0925811678171 -0.20055809617 -0.19996842742  0.0127155454829 -0.193433105946 -0.225977659225  0.0415658205748 -0.200880005956 0.196522325277  0.0373581312597 -0.119548290968 0.120048768818  -0.0954102815882 -0.25 0.346414074494  -0.101368582479 -0.25 0.251933327382  -0.0374909392175 -0.25 0.286229296012  0.0852289572358 0.109103307128 -0.27055695653  0.07707493752239999 0.127253636718 -0.199824258685  0.128097131848 0.07648140937090001 -0.209757223725  0.154867321253 0.13628205657 -0.212952241302  0.08678253740069999 0.189277544618 -0.274375885725  0.127699971199 0.0803090333939 -0.326344817877  0.0577741526067 0.0601542405784 -0.31936660409  0.0525139421225 0.129102528095 -0.326874881983  0.0251371748745 0.175572559237 -0.261228203773  0.0199144631624 0.0927290171385 -0.265960127115  -0.148952946067 -0.121583275497 -0.374568909407  -0.25 0.177950121638 0.0405701099774  -0.25 0.111295968676 -0.00354384794953  -0.175531774759 0.135734900832 0.0562076568604  -0.178730383515 0.191659659147 -0.00562386959791  -0.0244714934379 -0.108516678214 -0.387223660946  -0.09279609471560001 -0.170035287738 -0.445968538523  -0.0281062982976 -0.0
[...]
<PointData  Vectors="f_68"> 
<DataArray  type="Float64"  Name="f_68"  NumberOfComponents="3" format="ascii">2.1727256794793235e-05 1.8681445873433365e-05 -1.9644801413169093e-02  -4.1099649591862269e-05 6.0878594765637317e-05 -1.9344277472589731e-02  -4.9012537031282905e-05 -4.0797369383010679e-05 -1.8476167066481787e-02  -8.3297326425837626e-05 5.0745181026843509e-05 -1.7126442982025890e-02  -8.0095214021258816e-05 2.4962602736511454e-05 -1.9632196027423506e-02  -1.2220517926535940e-05 1.4220479089265120e-04 -1.7787268664468742e-02  -5.5230886852176052e-05 9.9641675500248907e-05 -1.9556851803764496e-02  2.0583177296193996e-07 9.1717611375146028e-05 -1.8105322882510690e-02  -6.9098665188715126e-05 2.7054648203926555e-05 -1.9405123567980260e-02  -9.5899616562107059e-05 1.6481168205661459e-04 -1.6164697093868328e-02  -3.1044190080130336e-05 5.4022365660913961e-05 -1.9791796063290373e-02  -1.9377003158969869e-05 2.2146976095454827e-05 -1.9619855718039307e-02  1.2308542240861349e-06 4.5058984344405087e-05 -1.9364475122822352e-02  -1.4510011724410778e-05 5.5982794792380259e-05 -1.9516486980005378e-02  3.7596903587160421e-05 7.9861829183740943e-05 -1.8586310282174192e-02  -8.2340948598225958e-06 3.1213738861546633e-05 -1.9023259754948656e-02  3.4278744237194224e-05 -1.2946754109145091e-05 -1.7934339855295446e-02  -2.6772780098598459e-06 3.6532497054689470e-05 -1.9497815486692095e-02  -5.6187063145038033e-06 2.0484153995412151e-05 -1.9480599067040961e-02  6.5339941594617955e-05 -4.3854266501637087e-05 -1.9061620773914222e-02  8.6548679267315259e-05 5.1183377731040634e-05 -1.8323518746943095e-02  -2.8315973297947702e-06 9.8765506010646111e-05 -1.8623712757905773e-02  -4.6184398357580636e-05 1.8802465908956633e-04 -1.9042110458812773e-02  -1.9925966297970336e-04 3.5919504816180449e-04 -1.9217722616992207e-02  -3.2913877065912346e-04 1.9735503869161696e-04 -1.8178156632495057e-02  2.6211900597618168e-04 -1.6014463778643540e-04 -1.8270038744514414e-02  1.6287295881530875e-04 -1.9470299140236623e-04 -1.7960304574163512e-02  -4.8927062076236141e-05 -3.5040587899666601e-05 -1.6437899408819311e-02  2.7723473521550768e-04 -1.6585462004134195e-04 -1.8451485262403533e-02  -8.5890833908866486e-05 1.0933306233582001e-04 -1.9061001490207830e-02  -1.5674127160113008e-04 6.9910062709189742e-05 -1.8346313977177686e-02  -1.9178005738167081e-05 -2.0215275799297627e-05 -1.8430791435227283e-02  -4.8300592093578683e-05 6.1863553904344823e-05 -1.9615918887443615e-02  -7.8680496621749948e-05 6.9118427800879029e-05 -1.8888736240783001e-02  -8.2044291766542203e-05 1.9624533954516358e-05 -1.8958573839362877e-02  -8.1662931072971900e-05 8.2934475941233557e-05 -1.9129742032661698e-02  -6.1153689024537135e-05 1.0502192577786678e-04 -1.9310725228265598e-02  1.6285600254304050e-04 -2.6355285995746363e-05 2.2471245344881687e-04  3.0433425522079346e-05 5.9876561815432081e-05 4.1958843217478352e-04  -1.5023674284262953e-05 4.8681020558855173e-05 3.2538306394758404e-04  2.5749707620211637e-05 1.8309557402817137e-05 1.8739851018885682e-04  -1.0988193403817531e-04 1.1893656814441598e-04 -1.8001367255386917e-02  3.3361460837001549e-05 8.7254246944919091e-05 -1.9257100914032221e-02  -7.9109995883584939e-06 5.7041925138546613e-05 -1.9850642590175910e-02  -7.2475865484983811e-05 -5.8684530795125730e-06 -1.8786952751107922e-02  -5.5468716951898706e-05 1.7579847580099685e-05 -1.7980426806361641e-02  -4.6354979426837303e-04 6.2052615116731547e-04 -1.9034033506202912e-02  -2.1764586013152719e-03 1.5845569124056345e-03 -1.8490064435629460e-02  -8.5912773241294085e-04 1.3942583908910795e-03 -1.8172026523913334e-02  -7.4989769839905757e-04 5.0752405979270397e-04 -1.7897454056830627e-02  -1.1922405966343335e-03 1.6459580246403936e-03 -1.7814916827558439e-02  -3.6137871250284062e-04 3.5236355326359045e-04 -1.9400590306951234e-02  -7.0892566689629850e-04 9.3678919870569322e-04 -1.8600643242406463e-02  -4.3351854258705594e-04 3.8519426443205958e-04 -1.7085463313804155e-02  -2.1755588489531956e-04 2.8693841155301436e-04 -1.8831545775582135e-02  -9.0940150282281906e-05 1.0205576526809802e-04 -1.8499476444437234e-02  1.9065677271044921e-04 3.5566633040708080e-04 -1.3671079557372056e-02  -5.9025524358756724e-05 5.6836277502203341e-05 -1.7378605755770469e-02  -3.3201228039986714e-04 5.9116778299244635e-04 -1.8546562527709129e-02  -3.5683374744463882e-04 4.5084944389460078e-04 -1.9111456471472939e-02  -1.9618671345487550e-04 3.1385848429321743e-04 -1.9285994127262226e-02  -3.1094547870757643e-04 3.7963971328481254e-04 -1.8910206534470765e-02  -4.4057651904449356e-05 1.1734913598058826e-04 -1.9020249631567062e-02  -1.1062208686334825e-04 1.1307579426087046e-04 -1.9809505585886029e-02  -7.3525372100015056e-06 1.4307091190447199e-05 -2.9102925139613263e-05  2.7642907901859811e-04 8.9118805274706803e-05 -1.3021494959005141e-02  -1.0061838521885511e-04 -2.7841919839687089e-04 -1.4644583328837673e-02  -9.0613329752767892e-05 1.8136358260845763e-04 -1.4657143148010693e-02  -9.3241225162545493e-05 1.7091684791001194e-04 -1.9330091428014010e-02  -1.4222470598357147e-04 9.8151895474314291e-05 -1.8693887625177895e-02  -5.8014416312059527e-06 7.6943332309850280e-06 -3.4793937688659891e-05  -2.9828904337623188e-06 1.8407780867504120e-05 -3.3416063937248054e-05  -6.7111842041669872e-05 8.9701939488367406e-05 -1.9933528623586050e-02  -2.8566511050709035e-05 1.9082330740549814e-05 -8.1174590907473010e-06  -5.4498964766742663e-05 2.5592405920000922e-05 1.4919370877676198e-05  -1.3878636276969479e-05 2.5881243130485568e-05 2.0714135602301481e-05  -7.5839856526076617e-05 -2.0036445898665041e-04 -1.1451090269298501e-02  -8.6576020546496971e-06 8.2324250191575655e-06 -3.2715749144657523e-05  -8.6958741980852478e-06 6.2209006221092884e-06 -2.8503613662186301e-05  -7.5571456594894501e-06 3.5477311988321741e-06 -3.6535384251667609e-05  -1.1896852838211034e-04 8.6817871508625011e-05 -1.4900251628325549e-02  -1.5108744642634275e-04 7.0411937880817670e-06 -1.8270404117002609e-02  -6.6125836679027730e-06 3.8572263967933431e-05 -1.9900611240742969e-02  3.4976454259293991e-05 2.5276921056290340e-05 -1.8900741733693230e-02  -2.8717836969789522e-05 -7.2416634386493714e-05 -1.8319942761358173e-02  3.2490843552860941e-05 -1.8150136547091561e-04 -1.4868571380943321e-02  3.4876458640868640e-05 -1.9564877353884243e-05 -1.9228450313615225e-02  3.8019401521979202e-05 -1.8332121902569167e-04 -1.8946826157179651e-02  -1.0316565579614171e-04 -1.1827608496254419e-04 -1.8319257449315639e-02  -1.6448475798416332e-04 -5.5321007599338227e-05 -1.3351558808414644e-02  -2.2324767702559700e-04 4.9778876068344916e-04 -1.6462519285793599e-02  -9.7290109556534272e-04 4.7918231273455552e-04 -1.6402858558821128e-02  2.7109611508139111e-04 7.0437891250644028e-04 -1.7032724830471951e-02  -6.7661858471869467e-05 1.2912421264629022e-04 -1.8846066287936180e-02  -5.2213352500430797e-04 3.9640568866001856e-04 -1.5887902639083244e-02  -2.4045734605345674e-04 -3.4901894177485942e-04 -1.4822827808158155e-02  -1.0899803045002410e-04 1.9583831941872478e-04 -1.7367744735830509e-02  -8.9152080303892635e-05 6.9524176379340686e-04 -1.4885332889913618e-02  -2.9378846644470720e-04 2.9173108622164819e-04 -1.8817300376902862e-02  -1.4995382490295715e-04 3.6881054330535271e-04 -1.5728375200464485e-02  -2.6247453344052283e-04 5.3590923443676752e-04 -1.7742922194061775e-02  1.1385345520479405e-05 2.7581159184679260e-04 -1.3579389565660564e-02  5.8941513801974827e-05 4.1405105212409566e-05 -1.8963810910296901e-02  3.9899945831095288e-05 3.8291415168391761e-05 -1.8806126837528490e-02  3.1543405069104052e-06 -1.5101977660324528e-05 -1.7486080590316328e-02  -2.5639634612219968e-05 4.2232291589071504e-05 -1.6423119443072759e-02  -4.5269661272232084e-05 7.9187902627378927e-06 2.3693955695038796e-06  3.1798933204938166e-05 3.5544939629754088e-05 -1.9384151547993111e-02  -2.0347769374440097e-06 6.3071490683948937e-05 -1.9630309053400900e-02  1.8540915488435625e-05 9.5111097436084488e-05 -1.9319261493976878e-02  4.1012313014190420e-05 8.2856260686092878e-05 -1.8839171324468603e-02  5.0843766084806087e-05 1.5423957777589235e-05 -1.5496390813972038e-02  -8.7547707610346586e-06 1.1447743186480861e-05 4.3415556171767715e-05  -2.4673516242428576e-04 1.7978745591198388e-04 -1.5487965783614598e-02  -1.6458040452657226e-04 2.3489276239356828e-04 -1.2263714799730169e-02  6.2283626401684255e-04 -3.4621798132463501e-04 -1.4798231603053430e-02  7.0558755059174850e-05 1.7970948482310755e-06 -1.9305013376250908e-02  -2.3459912439258648e-04 6.9802256505762628e-05 -1.6485050806609509e-02  2.9050549997787725e-05 -2.2457396871026941e-04 -1.7298241252147399e-02  -7.4838902918837374e-04 1.2990378092704079e-03 -1.8438996218278939e-02  -4.5634709284503544e-04 7.8525858209596393e-04 -1.8709400571910270e-02  -1.6658238819183268e-04 4.6430801897715863e-04 -1.3611436041012486e-02  -4.5969724332619666e-04 9.1037667802103630e-04 -1.6209999749301471e-02  -7.1171978371532558e-04 1.0398270642743269e-03 -1.4447266952053154e-02  -6.2995395724663888e-04 1.2256616810313189e-03 -1.7600317998693819e-02  -6.7802352982638018e-04 3.3749007373090022e-03 -1.3525826116248753e-02  -5.5935840733627141e-04 1.7042050792929104e-03 -1.7826883221354096e-02  -4.2085313747456835e-04 5.7280609408860846e-04 -1.7890818518535957e-02  -4.5045435756148398e-04 4.1596882542082003e-04 -1.7025728723019339e-02  -1.2272705496234730e-05 3.0182408333300447e-05 -1.2182577627823757e-04  -8.0928608013966558e-06 2.2057543603676798e-05 -9.2154995612020479e-05  -5.8465000433288272e-04 3.7690375171697555e-04 -1.5772722923100526e-02  2.1659571174834075e-04 -1.2478270566870705e-04 -1.2818142365928835e-02  5.5990085727282895e-05 1.2364349308344953e-04 -1.8645517734639537e-02  -1.0853853809374247e-04 2.2994732031938672e-04 -1.8259561587586719e-02  -1.0580951343999910e-04 1.4700135167736755e-04 -1.9416565306650667e-02  -1.6594702955313942e-04 2.3922403018892646e-04 -1.9301825561358267e-02  -1.8420408053738754e-05 7.1785133974632865e-05 -1.8849771006936692e-02  -1.9894855808447092e-05 2.0002706031520180e-05 -1.0144549596506572e-04  -5.3968143661831899e-06 1.4799994754857806e-05 -8.8292349915502539e-05  -1.2435573186874365e-04 6.8719291958124225e-05 -1.6536221131025389e-02  -3.4712339062880260e-05 1.4828571642011391e-04 -1.8705577660188155e-02  -4.5832668552865430e-05 7.1497698812837020e-05 -2.9497192466105724e-04  -1.6045741346033048e-04 1.0150015204419822e-04 -3.6678385557056088e-04  -7.5633223131832075e-05 3.7333928347118976e-05 -2.1355262266349050e-04  -4.0107166038652955e-04 4.9702119975911121e-04 -1.6156724965531090e-02  -2.0445270096262289e-04 3.4361140233861491e-04 -1.8197198288879838e-02  -1.0027939894809817e-04 9.0890498665823646e-05 -1.6517772435199092e-02  -1.0377602156288989e-04 1.0525164509692953e-04 -1.8801174385581335e-02  -4.0267206104691080e-05 -7.4326903985340108e-05 -1.6104294652340419e-02  -1.0129252749671931e-04 -4.4318298255858160e-05 -1.4526353344913262e-02  1.5762328168661719e-04 4.2637944611820959e-05 -1.4589588724791484e-02  -3.7641272743808469e-05 9.6397576738417039e-05 -1.7592042991861328e-02  -3.9663042653881417e-04 -3.2288968182567982e-04 -1.5288723046774678e-02  1.2251401953617414e-04 -1.6541741020266026e-04 -1.2789820149955325e-02  -1.3413457622131497e-04 -4.7202729078269504e-05 -1.6630210318309281e-02  2.2349082847804332e-06 1.3848979752773558e-04 -1.4938813462365370e-02  1.0553734042668386e-04 -2.2240725515298088e-05 -1.6210813870959250e-02  6.3607429169583446e-05 3.3456479015440325e-06 -1.3255249584092344e-02  1.2338672486080811e-04 1.0690055879933811e-04 -1.6398085168223241e-02  8.1018172145545271e-05 2.2944204144396043e-06 -1.8056201915389123e-02  -1.4274541522539322e-04 4.8398588744459353e-05 -1.8631610281355564e-02  -1.4829841174612569e-04 1.1702367675629224e-04 -1.2615619485149013e-02  -6.7372594211046830e-06 6.4783645443930134e-05 -1.8262540272606161e-02  -2.2361059060287055e-05 -1.2460124590698529e-05 -1.7249957436210408e-02  -7.0448496964366374e-05 9.9075200596565206e-05 -1.8160636713506075e-02  -2.0639037726054448e-05 6.2240059359182012e-05 -1.9224375239135109e-02  -1.9293406191998489e-04 1.7874775986182205e-04 -1.9601942152805935e-02  -4.4470048737445091e-06 6.2131868357625641e-06 -5.8875754920855120e-06  -4.4425855084364490e-06 4.4958203100284802e-06 -1.7909184479480527e-05  -7.7425192945827408e-06 2.8772166283249827e-06 -1.1234365355972484e-05  1.6987857457338370e-06 1.0581926462098483e-04 -1.3694637198942554e-02  -6.1342839110691124e-04 5.8961782767510918e-04 -1.5174132561689578e-03  -1.9482257153809518e-04 2.3389121305228679e-04 -6.0600211015770806e-04  -4.9627233828490982e-04 3.1901730190451880e-04 -6.7233395954914479e-04  -1.8949904739718533e-04 5.8774991021678089e-04 -8.2712384935201757e-04  -1.7247990251703847e-04 1.9325346829175417e-04 -1.8684303686044249e-02  1.8013464972592650e-05 2.3409807601824706e-04 -1.8378981529965820e-02  9.7415817282174637e-05 -1.6284446751784711e-05 -1.2086850543823727e-02  1.5851600413085852e-05 7.2417149624998849e-04 -1.5200344329639659e-02  2.5250051739266090e-04 1.3324414861296769e-04 -1.6430424097350654e-02  -3.4374864297305425e-04 4.3231757549208795e-04 -1.5485879903358179e-02  -8.3793194524277640e-04 5.9997724093382998e-04 -1.8370442167965947e-02  -1.0841651277155766e-05 2.6486060357933085e-06 -5.7975760768629157e-05  -3.6632718673647640e-06 5.9618934301278881e-06 -5.4914229126254133e-05  4.1079363803319649e-04 -3.4917030210084769e-04 -1.4486080929993053e-02  -1.7044163761938461e-04 1.8580579260268730e-04 -9.1288521494957732e-03  -4.4824736179468116e-04 1.6448186132396854e-04 -1.7519370146843360e-02  -2.7113604546336403e-04 3.1607401100067456e-04 -1.8229752094438723e-02  -7.9999348137037499e-05 1.0164237454404338e-05 6.4122198351700645e-05  -8.5425762906076613e-05 2.1272594601428901e-05 -8.7195008166127603e-06  -2.0803583809108644e-04 3.8585998357606361e-05 1.0108221942014587e-06  7.3450971220657130e-05 2.0216795890171918e-06 -1.8328960818561033e-02  -1.5263933153819545e-05 -5.9038913911387018e-05 -1.8398587245928941e-02  3.9071452404603843e-05 2.0814005409381894e-05 -1.7779177401431565e-02  1.0638477175241342e-04 8.7917623742122289e-05 -1.5851746827064438e-02  4.9665668693865728e-05 -1.5946718269489750e-05 -1.5357750086214234e-02  -3.2899924346885282e-06 2.5818173609024450e-05 -1.9447874843380675e-02  6.2016563280777375e-06 -2.7594221956690552e-06 -1.9293384350608647e-02  -3.8398407549317882e-05 -3.1600524272167809e-05 -1.6558884672991839e-02  -1.2025035156812823e-04 -5.3337131705729054e-05 -1.7369424758506065e-02  -1.0661222884889895e-05 3.0000812081729571e-05 -1.9545139519561466e-02  7.4838986826302061e-05 -1.5786869728148280e-04 -1.6789091463020333e-02  -4.2619600725007566e-06 4.5154661796585296e-06 -1.8991394702974923e-05  -5.6275167521411374e-06 6.9691222355041661e-06 -2.3993881581256240e-05  3.8448007575169060e-04 -4.1726012233569802e-04 -1.3956425245716917e-02  -3.7686726551644203e-04 3.2996837437948665e-05 -1.3892302266420376e-02  -4.8729561044135365e-06 2.3694178859446374e-04 -1.7465712574723215e-02  -6.8183995019544626e-06 2.1776360506979147e-04 -1.7282018756814944e-02  4.0407078833409047e-05 1.5093683391634348e-04 -1.9268775607114812e-02  -2.2568766342030280e-06 3.9614381734127802e-07 -2.5350471947688113e-05  -5.3815907499082367e-06 4.3930199241026434e-06 -2.7986426824950217e-05  -3.7821754753312152e-05 -7.0000615007553070e-05 -1.8904382430423146e-02  1.3134606146146549e-04 6.8732343146843533e-05 -1.4087186924920779e-02  -5.0224191800472652e-05 -5.3114558342248636e-05 -1.3187449566647977e-02  -9.4180220457995104e-05 1.9742162451164341e-04 -1.7582907533689567e-02  -2.5374419125491880e-07 4.9448105462347085e-05 -1.9467068145829099e-02  8.6111215241815469e-07 5.0271474702720637e-07 -5.3259753480473747e-05  -7.4638898656491161e-07 9.5045311690460855e-07 -5.2367724252470498e-05  -2.3130941650954261e-06 6.3638145020877796e-07 -4.9127300429620918e-05  7.1354774805194757e-05 4.3659725889838157e-05 -1.6047430032642078e-02  2.1371611720006181e-05 3.0420954931727243e-05 -1.9075680991210757e-02  6.3116928460171784e-06 3.9400634282469858e-05 -1.9509869642420095e-02  -1.8487570441343929e-05 4.2287203821358937e-05 -1.6679952233000429e-02  4.0216132238413459e-05 4.3579409084539007e-05 -1.9233180299472120e-02  -5.2886709632599090e-05 -1.9069229401916147e-05 -1.9292969469779001e-02  -3.4060197586535093e-08 2.0821388216161755e-05 -1.8442284631723316e-02  -1.4623820885154489e-05 3.1452924115536663e-06 -3.9410788898687245e-05  -1.6496839983355068e-05 5.6429928010807363e-06 -4.5631847759879560e-05  -2.2083233429557862e-04 -6.0606817175079119e-05 -1.4821832167525919e-02  -3.2265419387144787e-05 1.1466179897742158e-04 -1.4156234909685563e-02  1.3843171491176377e-04 -5.1566344655558163e-05 -1.7945448544978655e-02  6.4252118161196764e-05 -2.1422311651273116e-05 -1.8294590490720533e-02  -9.5436304097970789e-05 1.1132820407431494e-04 -1.8926840895747483e-02  1.5545598762689852e-05 -2.7929434153069743e-05 -1.6610866930442492e-02  1.1643617337009243e-04 -1.2444955419339281e-04 -1.6693441806861539e-02  -2.5035109878961947e-05 8.3315837148348470e-05 -1.5801170975366943e-02  5.6506687183860795e-04 -2.2447517165211708e-04 -1.6699426501433103e-02  7.9352574660882595e-05 1.4710492835173201e-05 -1.9386822584491606e-02  2.0034915557115278e-04 1.0023842274283171e-04 -1.9941742208856354e-02  1.1064028992920899e-04 1.9960493655690831e-05 -1.7754522702120263e-02  -1.4085397393786296e-06 1.4604711992144520e-05 -1.9320252787928670e-02  1.2144386649446636e-04 -6.3858073118717255e-05 -1.9161577596977210e-02  5.1871201842029261e-05 -9.7707326015058379e-05 -1.9354349159846271e-02  2.0604734144577607e-05 -1.7903901080594601e-05 -1.9483247938400811e-02  6.9724016616779322e-05 5.6447091785713846e-05 -1.7099325375970181e-02  -4.2246142927935927e-05 4.6187590028946935e-05 -1.7454178348184281e-02  8.1529429477913341e-05 -4.0592432452801257e-05 -1.1479248135532978e-02  4.0277033966655397e-06 -1.7718426796637822e-05 -1.6485692610746998e-02  -1.9306825991070359e-05 -1.1491192842065145e-04 -1.9001898414217195e-02  -1.7984415597791238e-04 -1.9328635235392968e-04 -1.7969199874542468e-02  -4.0775792254795876e-06 2.0073136900359190e-04 -1.7399036998502340e-02  -1.6049932257540490e-04 5.1706095258858956e-05 -1.4846454155118080e-02  -3.1488024043176799e-05 -6.9783299696497659e-05 -1.8402911154891639e-02  -8.8537301433088772e-05 -1.3581203793683485e-04 -1.2976763997799125e-02  -1.7184480174857058e-03 4.2756295063934658e-03 -1.4450441298976120e-02  -2.6081352646593809e-03 2.5092236921030915e-03 -1.4444007601993655e-02  -8.2683154373817068e-04 8.6492844375203820e-04 -1.9001433950650081e-02  -3.5696574538343494e-03 4.6292743126176141e-03 -1.6450303290553282e-02  1.5151591908884980e-04 7.2210393307695000e-04 -1.7096806212136377e-02  9.5041712566595668e-05 5.7651209696781773e-04 -1.5348023773159887e-02  -1.8547798186899205e-06 8.1066575244040952e-06 6.2905912042329936e-06  1.0450087369718914e-06 -6.6327145571336712e-08 1.8703561475501262e-05  -7.4196035280417953e-06 8.5779893671388583e-06 1.5248811160530407e-06  1.9370100268158107e-04 -6.3134241376268862e-05 -1.5396425083996114e-02  -7.1341371314212075e-04 2.3496761379474858e-04 -1.6393878439877319e-02  -5.5357386898022515e-04 4.6691828922556150e-04 -1.5508691933216988e-02  -1.3792528061162652e-03 1.0328797458345397e-03 -1.5692775544753939e-02  4.2551972108989414e-04 3.5764062903053366e-04 -1.5440211704827810e-02  -3.4521182133620467e-04 1.9407258973726542e-04 -1.7534367491191284e-02  -3.3344288829874715e-04 -1.2069009538395335e-04 -1.6905653928765155e-02  1.6491939708177813e-05 1.3759521636901956e-04 -1.4034709660415362e-02  -1.9368326030396197e-04 9.2403507469278502e-05 -1.5374711176777403e-02  1.0814836216203273e-06 3.6432166430187419e-06 -5.3412640249203843e-05  -1.0779729302585750e-06 3.4072789259088224e-06 -5.3952605228784944e-05  3.1164181127676024e-05 4.5545946910701681e-04 -1.7360143755482418e-02  2.4360316954878337e-06 6.1255020815573895e-06 5.76602512