<?xml version="1.0"?>
<VTKFile type="UnstructuredGrid"  version="0.1"  >
<UnstructuredGrid>
<Piece  NumberOfPoints="857" NumberOfCells="3763">
<Points>
<DataArray  type="Float64"  NumberOfComponents="3"  format="ascii">-0.0182597916573 0.126128911972 -0.119588643312  -0.0077641364187 0.0512270443141 -0.07050477713349999  -0.0237180162221 0.16240182519 -0.053058128804  -0.107877351344 0.105669431388 -0.0502408407629  -0.0444478429854 0.116080775857 -0.00235075876117  0.0393674038351 0.112876079977 -0.0491501875222  0.0248903874308 0.0489483103156 0.000152088920004  0.0314915925264 0.114928804338 0.0218031276017  -0.0657326281071 0.0685198307037 0.0497140102088  -0.0355357266963 0.164656624198 0.0508319064975  -0.010538729839 -0.0422629192472 -0.208358153701  -0.0239527057856 0.0135364839807 -0.242119863629  -0.0194642152637 -0.0775559768081 -0.263431429863  -0.08492307364939999 -0.0108216870576 -0.280446648598  -0.08293507993220001 -0.0361198186874 -0.159778758883  -0.0240796487778 -0.0824203491211 -0.148982465267  0.0430508553982 -0.121076337993 -0.234084427357  0.0307756774127 0.0324950888753 -0.198437720537  0.00352357281372 -0.00433266581967 -0.144715368748  -0.0456651262939 0.08372022956609999 0.342343091965  -0.116630032659 0.0117083769292 0.386158525944  -0.08223126828669999 0.0577075146139 0.289406776428  -0.0511222109199 0.00205342215486 0.300772219896  -0.0125984866172 0.0267426930368 0.351842552423  0.0303636882454 0.0561947338283 0.391145974398  -0.0524924062192 0.0543583929539 0.40361738205  -0.07944945245979999 0.130002260208 0.441037595272  -0.000730989675503 0.119443200529 0.385622620583  -0.078488714993 0.137875169516 0.332541137934  0.0142801422626 0.110509291291 0.27100610733  0.0224165506661 0.08303219079970001 0.331783413887  -0.0170432701707 0.161798536777 0.30022162199  0.000811119796708 -0.0515509881079 -0.08419398218390001  0.0888616070151 -0.015075173229 -0.0776951387525  -0.0989535748959 -0.0518730916083 -0.08125374466180001  -0.0433920919895 -0.09785594791170001 0.0106235472485  -0.0488061010838 0.0295096840709 -0.0131453983486  -0.25 0.25 0.5  -0.166666666667 0.25 0.5  -0.25 0.195066730511 0.445658150344  -0.19506166517 0.25 0.445542865294  -0.0213422998786 -0.126349791884 -0.045622177422  -0.117952652276 0.0158270020038 -0.16616243124  -0.0531469397247 0.0490713231266 -0.13630309701  0.0358348339796 -0.131537660956 -0.134171053767  0.0583617314696 -0.115307979286 -0.0462360456586  0.010585160926 -0.0606908276677 0.314250290394  0.078067921102 -0.133790805936 0.331458956003  0.0206208750606 -0.104583717883 0.36723652482  0.0300164371729 -0.13569638133 0.270959883928  0.0797956883907 -0.07311873137949999 0.388136893511  0.0291880238801 -0.0850581228733 0.220644980669  0.0788302049041 -0.07555303722620001 0.284453928471  -0.0465739220381 -0.108428947628 0.305151432753  -0.056692365557 -0.0812899768353 0.234353885055  0.10282895714 0.0630551427603 -0.0452189296484  0.178613707423 0.153893724084 -0.0703043565154  0.0750898644328 0.130835875869 -0.116260357201  0.0179002508521 -0.0400723591447 0.396018892527  0.07961820065980001 -0.020668130368 0.232235535979  -0.00726175494492 -0.022667773068 0.242156982422  0.0524490773678 0.0171752162278 0.310696065426  0.0103002395481 0.0813155695796 0.107229083776  0.00225681974553 -0.008687185123560001 0.0457225777209  0.177950121638 0.25 0.0405701099774  0.151375159621 0.202163234353 -0.00268407491967  0.13042794168 0.172564610839 0.0599601529539  0.184557154775 0.16295710206 -0.00737970136106  0.0827306732535 0.011830884032 0.0299163535237  0.106673434377 0.0676268041134 0.0663062110543  0.25 0.25 0  0.25 0.177947182503 0.0435581305687  0.0251978598535 -0.0201241951436 -0.0233656335622  -0.25 -0.25 0.25  -0.175495340629 -0.25 0.295351832328  -0.25 -0.175776260788 0.294629825204  -0.164853364229 -0.189889326692 0.246240898967  0.111295968676 0.25 -0.00354384794953  0.0417815256417 0.25 0.0264120515999  0.0577150444892 0.25 -0.0418173710713  0.035034801811 0.196921139956 -0.0497792549431  -0.115254960954 0.0352221727371 -0.0357825122774  0.0360979661345 0.0743419006467 -0.130612716079  0.08110298216340001 0.0143552683294 -0.135737240314  0.0281950440258 0.110801942647 -0.38559025526  -0.000352636008756 0.154027625918 -0.45018479228  0.0220217909664 0.07910815626379999 -0.445265561342  -0.041934799403 0.09297795593740001 -0.440330862999  -0.115356497467 0.128115877509 0.0303980205208  -0.08144567906859999 0.192924261093 -0.0396481454372  -0.0503155887127 -0.140062868595 0.370642662048  0.0181560348719 -0.191118896008 0.319997102022  -0.09442232549189999 -0.0766885429621 0.347179293633  -0.10306725651 -0.0245223585516 0.261891931295  -0.0371639840305 -0.192689821124 0.258922994137  -0.08778057992460001 -0.193450272083 0.293951839209  -0.116932563484 -0.137108251452 0.278956532478  -0.0434515699744 -0.19969072938 0.340430229902  -0.016621209681 -0.143479332328 0.208528921008  -0.0799133181572 -0.177766740322 0.206858798862  -0.0340202823281 -0.07231882214550001 0.405357718468  -0.153045728803 -0.0703692808747 0.28540495038  -0.0647673308849 -0.069349065423 -0.297796696424  -0.0468406006694 -0.118580199778 -0.331259429455  -0.0636249184608 -0.122360698879 -0.235275790095  -0.137311711907 -0.115820750594 -0.279358655214  -0.25 -0.25 0.333333333333  -0.00222280388698 -0.0275516584516 -0.327156513929  0.0233143884689 -0.124395690858 -0.330935031176  -0.00544846989214 -0.0444226972759 -0.392852008343  -0.07202984392639999 -0.0450558848679 -0.379192590714  -0.128861442208 -0.0482712239027 -0.325591087341  -0.0319190612757 0.25 0.27473160228  0.0259018652141 0.196524605155 0.343851953745  -0.0424101948738 0.196461260319 0.324036180973  -0.08801463991400001 0.193724930286 0.280150324106  -0.051391992718 0.129726842046 0.244459152222  0.0793330296874 0.131078347564 0.273738384247  0.0304427426308 0.197590425611 0.258007407188  0.139736711979 -0.103549621999 0.308288753033  0.117407329381 -0.00031748006586 0.284001767635  0.17845864594 0.0137020656839 0.2717012465  0.133446916938 -0.07468281686309999 0.252671837807  0.193237304688 0.0103836003691 0.32706490159  0.108656100929 -0.016409387812 0.370573759079  0.195593327284 -0.0705924406648 0.374003827572  0.204297035933 -0.0882691517472 0.283604085445  0.15987212956 -0.0232784096152 0.211559042335  0.103109702468 -0.0715631917119 0.185957938433  0.25 -0.177950121638 0.0405701099774  0.25 -0.111295968676 -0.00354384794953  0.168315500021 -0.181550845504 -0.0129796266556  0.203061833978 -0.0839376300573 0.0201103240252  -0.123973377049 0.0421161539853 0.0831994190812  0.10652089864 0.041568480432 0.133020982146  -0.00508088478819 0.00464248098433 0.118765294552  0.0384838804603 0.0542355030775 0.219570666552  0.0556482039392 0.09942726045850001 0.165778696537  0.25 -0.25 0  0.25 -0.17904445884 -0.0421267671166  0.0085972994566 0.139411628246 0.206887423992  -0.0427397117019 0.0734880268574 0.199836358428  0.25 -0.25 0.166666666667  0.177338154858 -0.25 0.209433902167  0.178222204231 -0.25 0.126578397361  0.180748909712 -0.154124230146 0.180074676871  0.118582360446 0.0498475395143 0.233844980597  0.113276541233 0.115120351315 0.208414897323  0.068451166153 0.123325429857 0.09300038218499999  0.08695217221980001 0.18308262527 0.11987875402  0.1366494596 0.0978636816144 0.125807240605  0.0170362386853 0.165571182966 0.116205818951  -0.075325883925 -0.13042730093 -0.120773427188  -0.191016584635 -0.1764793396 -0.0778442546725  -0.102759346366 -0.20253264904 -0.07015967369080001  -0.126150563359 -0.115044787526 -0.0573479756713  -0.138729035854 -0.104583211243 -0.134180948138  -0.147993162274 -0.138949289918 -0.203295826912  -0.180331096053 -0.192031860352 -0.160557568073  -0.194399222732 -0.0846866071224 -0.148938387632  -0.11259970814 -0.078034222126 -0.193649172783  0.0326924659312 -0.122268341482 0.0296003930271  0.0215157996863 -0.180560961366 -0.0757267251611  0.0956164896488 -0.0493310950696 -0.0164182558656  0.112129375339 -0.112067811191 -0.105549775064  0.127802968025 -0.106147237122 -0.0110959038138  -0.0854129120708 -0.015297700651 0.056893799454  -0.0204317308962 -0.0795602425933 0.117458000779  -0.178222204231 0.25 0.126578397361  -0.177947182503 0.25 0.0435581305687  -0.107976816083 0.25 0.0905854563709  -0.157577678561 0.178241759539 0.0969507619739  0.25 -0.25 0.333333333333  0.25 -0.25 0.25  0.175776260788 -0.25 0.294629825204  0.25 -0.175495340629 0.295351832328  0.0932372882962 -0.0430554822087 0.0724518448114  -0.044769000262 -0.00661279587075 0.403999477625  -0.194478780031 -0.0247275307775 0.332954645157  -0.173761367798 -0.0806607827544 0.396263659  -0.137637495995 0.00523930834606 0.315887242556  0.0864742994308 -0.139340251684 0.176064118743  0.105438224971 -0.136641919613 0.253711819649  0.0308670303835 -0.25 -0.136809572586  0.0367561832589 -0.25 -0.219583441074  0.0925811678171 -0.20055809617 -0.19996842742  0.0127155454829 -0.193433105946 -0.225977659225  0.0415658205748 -0.200880005956 0.196522325277  0.0373581312597 -0.119548290968 0.120048768818  -0.0954102815882 -0.25 0.346414074494  -0.101368582479 -0.25 0.251933327382  -0.0374909392175 -0.25 0.286229296012  0.0852289572358 0.109103307128 -0.27055695653  0.07707493752239999 0.127253636718 -0.199824258685  0.128097131848 0.07648140937090001 -0.209757223725  0.154867321253 0.13628205657 -0.212952241302  0.08678253740069999 0.189277544618 -0.274375885725  0.127699971199 0.0803090333939 -0.326344817877  0.0577741526067 0.0601542405784 -0.31936660409  0.0525139421225 0.129102528095 -0.326874881983  0.0251371748745 0.175572559237 -0.261228203773  0.0199144631624 0.0927290171385 -0.265960127115  -0.148952946067 -0.121583275497 -0.374568909407  -0.25 0.177950121638 0.0405701099774  -0.25 0.111295968676 -0.00354384794953  -0.175531774759 0.135734900832 0.0562076568604  -0.178730383515 0.191659659147 -0.00562386959791  -0.0244714934379 -0.108516678214 -0.387223660946  -0.09279609471560001 -0.170035287738 -0.445968538523  -0.0281062982976 -0.0
[...]
<PointData  Vectors="f_104"> 
<DataArray  type="Float64"  Name="f_104"  NumberOfComponents="3" format="ascii">-7.6121228491851523e-05 -9.4842860271197388e-05 1.4246651836533691e-01  -2.1228391233431938e-04 -6.9864803501892944e-05 1.7032040779548349e-01  -6.0885673291934073e-06 7.3882883052391160e-05 1.1951755757574468e-01  -1.9008578808628034e-04 2.6716673450809340e-04 1.3312866587171621e-01  1.4829485310715796e-04 2.5796027777110880e-04 1.4407170894075086e-01  3.9094738239754635e-04 6.1318422254506930e-04 1.4679741452220296e-01  1.0457701089577298e-04 1.6552228506327131e-04 1.6927624989837517e-01  3.3848384431121485e-04 3.8771843032694596e-04 1.4649662948818051e-01  -4.3640103819715875e-05 3.5586181542359059e-04 1.5703111281973714e-01  -2.2229565913572672e-04 2.6810219906293957e-04 1.1645436088167999e-01  2.2075308591440937e-04 -6.1286734152632115e-05 1.7254915262700873e-01  -2.0855612154512301e-05 -2.5577417098361203e-05 1.7508480609187227e-01  -4.8270891736445424e-05 -1.2930351048972096e-04 1.6385260019406842e-01  -9.7402039626674053e-05 4.2621938776605359e-05 1.6226715170526612e-01  -2.3144949924686127e-04 -2.9703714771423873e-04 1.5990560372719156e-01  1.3630074935405777e-05 -4.3203109309556936e-05 1.6094015244592993e-01  3.3428855607418234e-05 -1.4276243122069424e-04 1.4423316375328143e-01  1.0814456242356835e-05 2.2462985810249022e-04 1.7237281228295531e-01  7.9090708283953572e-05 5.0050458654306433e-05 1.7582517573428039e-01  -3.7638238334618801e-03 6.9236168871506295e-03 1.4340891755559104e-01  -1.0743599521383727e-02 7.0809691055510611e-04 1.3066735454676151e-01  -3.5153871325569563e-03 2.5727743482221290e-03 1.4703390196932534e-01  -2.0925899180492965e-03 3.1191063786700974e-04 1.5609252122353182e-01  -5.6022980508215674e-04 2.0288425777975710e-03 1.5031440951111272e-01  5.0993004113903829e-03 6.4835957006973300e-03 1.3969603385473126e-01  -7.4648667279266978e-03 7.2077352627769806e-03 1.3532708385370401e-01  -1.0745804326871356e-02 1.4905024186736568e-02 1.1970871659230879e-01  -1.0501772219756584e-04 1.1712600038765108e-02 1.3105359965287594e-01  -5.6077909847335348e-03 7.4776010822548370e-03 1.2532795197971341e-01  -1.0315291598254958e-04 3.4122804793937154e-03 1.4488502329828934e-01  2.5862265616764181e-03 5.9133899639777273e-03 1.4764766998601514e-01  -1.1793097194407601e-03 4.7580873507355546e-03 1.1677676402905368e-01  1.9507749849234348e-04 -8.5722825410095732e-05 1.7051284940269107e-01  1.8874066682773001e-04 -3.0893310920545057e-04 1.5965787798158199e-01  -1.7005247963550727e-04 -1.0019165797715531e-04 1.5178045838310039e-01  -4.6972061456217586e-04 -1.6834788950642856e-04 1.5236288041555768e-01  2.4602373814214815e-05 -3.7605853672544119e-04 1.6841378624251321e-01  -1.1414279961465811e-02 9.5836680148404952e-03 1.3587737018378912e-01  -8.2006544238259500e-03 3.1707949944890855e-03 1.2514823422084884e-01  -9.4534412705261674e-03 1.0871645260298863e-02 3.1108679520250371e-02  -8.4654650479952485e-03 7.1558724058684063e-03 3.4456562743610863e-02  -3.8062998643369856e-04 -1.8749629048078539e-04 1.4147316187306372e-01  -3.9065996459818411e-04 3.2652872508510554e-04 1.4813671429485131e-01  1.8970790400065442e-04 1.0165412725331536e-04 1.6544453046649235e-01  1.5530901463730711e-04 -6.5321316768336232e-05 1.3844882292335969e-01  2.2929201273306612e-04 2.8091383426291476e-04 1.4225337840465982e-01  4.2499760911777053e-04 -3.5266965431409079e-03 1.5389492584194100e-01  4.9033107408036035e-03 -7.0752570882688251e-03 1.2726399160723254e-01  2.0724338578130938e-03 -1.0574972402783569e-02 1.3692114467767197e-01  1.0275190163365475e-03 -3.2365593445989661e-03 1.3151601389564196e-01  8.9944813803128978e-03 -8.9005271236130053e-03 1.3414916636186744e-01  9.0889580247983503e-04 -1.7171286516738790e-03 1.5361591365016555e-01  3.5402004348802619e-03 -2.7673409013009654e-03 1.4579038327772001e-01  -2.4217342892399181e-03 -4.9785662240824577e-03 1.3962460679295738e-01  -1.3117010039753155e-03 -1.6025236017904701e-03 1.5100837770470107e-01  1.3250080816961787e-04 3.1168123929816669e-04 1.4828640450439423e-01  -1.0950833634263901e-04 1.5038691711104343e-04 8.4033881927205359e-02  4.0791214464126448e-04 3.6319686274518132e-04 1.3273431444891062e-01  3.7130790407326193e-03 -4.2809445525668474e-03 1.3910002574607250e-01  1.8328821427482894e-03 4.5395970070680713e-05 1.5535913534784693e-01  1.4137200209590411e-04 -1.5313149050614301e-04 1.6323015309903022e-01  2.9681491103331426e-03 1.4422117084064115e-03 1.5436217519273365e-01  1.0516334244100555e-04 9.5164299796874610e-04 1.5921675309474378e-01  -2.1833609345792555e-04 -3.1098049591969656e-04 1.7403667231946945e-01  4.6613142469897179e-04 3.8114491708785101e-04 3.2601447057513784e-02  -2.7625400104478912e-04 -2.1270506522412766e-04 7.1611450830063428e-02  6.1737696808116199e-04 1.7387593015884758e-04 9.5603806313638753e-02  4.2624490903070021e-04 3.2165655354487153e-04 7.9731147819750672e-02  3.8488202136047553e-04 3.3380107568290986e-04 1.6126414735883213e-01  5.8665985658492724e-04 7.3038948028866931e-04 1.4328076402743073e-01  3.1520050661419083e-04 2.7293106623348595e-04 3.2241907022978508e-02  3.8811270398646268e-04 3.4999136990965994e-04 3.2624636566559014e-02  4.3516916969507176e-05 2.7716532607725873e-04 1.7418868169335966e-01  -1.4092514203289199e-03 -1.6016887625378720e-03 3.6819770900003553e-02  -2.4140642970109693e-03 -1.8201387441734056e-03 3.7520802180850354e-02  -1.4087221128942764e-03 -2.6818832377111970e-03 3.7631614092349407e-02  -2.1078448461552069e-03 -1.8354528722550388e-03 7.7864617390290936e-02  2.2068693758012012e-04 3.3023936128296358e-04 3.1908712688427328e-02  1.7855135492615538e-04 3.0892453561323088e-04 3.2186440392233652e-02  1.1843415689787560e-04 1.7898436793029970e-04 3.1602853874984668e-02  8.7690403221924449e-04 2.3337231185348436e-04 9.1906562549723431e-02  -3.2701981277747359e-04 6.6130264254929888e-05 1.4730997921616040e-01  7.7923164379234839e-05 2.7318785018487285e-04 1.6206585335889678e-01  4.4225909846814875e-04 1.3010094568060074e-04 1.6306025609274172e-01  4.4263804533720853e-05 9.2254188587680413e-05 1.5032255345186668e-01  -5.1557704480135355e-05 3.9332696205902230e-05 1.2658468887606028e-01  -1.5332442959285180e-05 5.6382538920663404e-06 1.6310966975436206e-01  -1.9443913281521667e-05 2.7279662473907085e-05 1.5623543417891242e-01  -3.5045464954170568e-04 4.4668418268322855e-04 1.2218166856397283e-01  -3.3443531684582877e-04 -1.0854050839080808e-04 9.0554228676501008e-02  -4.0890885972024033e-03 -9.9532039124810134e-03 1.2242644753267871e-01  6.4365113884218153e-04 -4.3739243674431848e-03 9.5765617438610562e-02  -7.4434279867955887e-03 -6.2807417975772181e-03 1.3800255359237432e-01  -3.8182674085183266e-03 -9.0691047375903149e-04 1.4701900590367259e-01  -1.9520527331470732e-04 -2.2238641756936557e-03 9.4675952873333552e-02  -2.5763773059429328e-03 -3.1555017232315435e-03 8.9699015826165504e-02  -2.9911581019783596e-03 -2.7291714644855519e-03 1.1749464969652608e-01  -3.7683303720678989e-03 -5.4788751263805096e-03 8.9473214767636533e-02  -2.6044960456359745e-05 -2.0659954214428725e-03 1.2849114086712271e-01  -1.2991611796562949e-03 -1.2559492897816916e-03 1.0221119398060362e-01  -4.1692142943672416e-03 -9.8589956781948221e-03 1.3333827832053904e-01  -3.9965704299418205e-03 -2.9929079961829286e-03 1.2015177141703820e-01  -1.1547882186840688e-04 -5.5830275937147291e-06 1.5955979281983534e-01  -9.6493552169950712e-05 -2.8240243643138458e-05 1.4456283736068026e-01  -1.2371897341617252e-04 -4.7058382301717525e-04 1.4013645082346404e-01  -5.2236352154022285e-05 -1.1133813883886624e-04 1.1878555015563293e-01  -2.3634761615900167e-03 -3.2308406433388336e-03 3.7710724200036537e-02  -3.6363484746279613e-05 -1.6152850131230024e-04 1.7550854342864528e-01  -2.1762964459535787e-05 -2.7054041811666927e-05 1.4396314962756207e-01  -7.4421345450668421e-05 3.0443782659437259e-05 1.7275540295260883e-01  -6.6266974989942289e-05 -2.2531338207048575e-04 1.6270033249211477e-01  -7.4321914946522146e-05 -7.2017719261577110e-06 1.3906007473862594e-01  2.0700149904734954e-04 2.1576370403541584e-03 3.4412332941261774e-02  2.9145056591028001e-03 5.7537167696481836e-03 9.1606229914858242e-02  -2.0513603864232926e-03 5.9808927991322446e-03 9.3478568461645067e-02  -2.6725370191957348e-03 2.5338113773225417e-03 9.1483403422527504e-02  -2.3485588373929876e-03 2.5174094600852550e-03 1.3474015766541600e-01  2.8723124248333340e-03 3.1400650037647919e-03 1.2933893511693448e-01  1.0357080410533044e-03 2.0519936376667833e-03 8.9968345015925613e-02  4.6864575213580182e-03 -3.1010361078869465e-03 1.1995326824355328e-01  4.4662221965160957e-03 -6.9350610555610930e-04 1.4236143597057627e-01  3.0744656554268649e-03 2.7005900173749514e-04 1.0612235164241268e-01  2.9409366413186522e-03 -1.9686252665160344e-03 1.2877279279752990e-01  4.9724153993464075e-03 -6.2814713424940894e-05 9.4380387222852843e-02  9.9046213074941106e-03 -1.0769729667520810e-03 1.3529837873655889e-01  6.2657918520481609e-03 -4.3953090107480526e-03 9.0804271539545664e-02  2.4492737857531909e-03 -2.3484248050926592e-03 8.2329214095191394e-02  1.5332378432939733e-03 -2.2609016777664108e-04 1.1897138216287699e-01  1.7578695175934549e-03 -1.5242226860631470e-03 1.4369110090693274e-01  3.1682600248009987e-04 -4.6834765879724129e-04 3.2726009564056351e-02  2.7896348930815223e-04 -3.6084954854373404e-04 3.2140840108994595e-02  5.9010150617442051e-04 -3.8287798043609532e-04 7.9593584087655267e-02  8.5895741776212452e-05 -7.4923746329790843e-04 8.1809057226497645e-02  -6.2708329167648338e-04 4.1655558362185564e-04 1.4135384041157811e-01  7.1405961131913265e-04 2.4321411668501588e-04 1.4903510049875671e-01  -2.6646097222788988e-04 5.5675952895403453e-04 1.7394470844616813e-01  1.1648028632458296e-03 1.1891346817862456e-03 1.6085589100390485e-01  9.0774214960516128e-04 9.7238657441292564e-04 1.4691784481932085e-01  3.3262384255189966e-04 -4.3196673280821639e-04 3.2250047539255373e-02  1.9430766537003100e-04 -3.7132249719928147e-04 3.1859139755008758e-02  5.3259687020964944e-04 1.4086590982475757e-03 1.3271865274019126e-01  -5.4921264679260904e-04 1.2948917637400088e-03 1.5689991290685473e-01  4.8419013700131482e-04 -7.6899523458418212e-04 3.4986835033449681e-02  1.1060272641671344e-03 -8.9619988052478067e-04 3.5763184519400325e-02  7.2758771429237235e-04 -5.7380849740265897e-04 3.4107266202743361e-02  8.4210389522313463e-04 -1.0988332359935522e-03 8.4417844886800375e-02  2.7534605832619367e-03 1.7893104920455583e-03 1.4097861008745430e-01  1.4323945470435734e-03 1.6860092986896932e-03 1.2715747038314992e-01  -1.2441823298545459e-05 6.2859486872513242e-04 1.3569646011446287e-01  1.0379014865101494e-03 8.2748292112515233e-04 9.8305299236594063e-02  7.6621042546112187e-04 9.5753862811556734e-04 1.2298699779983151e-01  2.6592104217313718e-04 1.3087225130820552e-03 1.1724342448255345e-01  -4.4673537641721513e-04 -2.4209178926798498e-04 1.3272545318464266e-01  2.6892196606331640e-04 -7.1208908276476830e-05 6.9417801926042189e-02  -3.7457795448284374e-04 4.8344814065868301e-05 7.8542280173042198e-02  -6.8781726388107369e-05 -6.3770344671743105e-04 1.2511770536121256e-01  -1.8643284956448714e-04 -1.5409026284407272e-04 1.2201182181847663e-01  -3.5689773929031132e-04 -2.9199900469045872e-04 1.0540704144784217e-01  6.0701581774203580e-05 1.8132313492431613e-04 6.8378336224437952e-02  -3.2108192215411145e-04 -3.4989488655299243e-04 8.8534762830465005e-02  -1.2963737978947468e-04 1.0741517980760682e-04 1.4019958464456306e-01  3.1020723099937312e-04 -2.6231824252432635e-04 1.4271468144102231e-01  4.6209911304647817e-05 -4.6587770972385050e-04 1.0582788556337888e-01  5.4248464853304691e-04 -4.3677707935098597e-04 1.5270678104157048e-01  3.3244572124858099e-04 -3.2644357467870837e-05 1.3017689403336105e-01  3.8860422517360944e-04 -6.7223801252868287e-04 1.2643348721670036e-01  -5.3891188760955085e-04 -6.8650178954663733e-04 1.6048975812906885e-01  -1.1969155457262773e-04 -4.7677485714985246e-04 1.6003693496383975e-01  -6.3892900238093128e-04 4.6540186615143367e-04 3.3988427215184552e-02  -4.1883970576539931e-04 3.5119869122413424e-04 3.2730950574687057e-02  -6.2488778395181814e-04 4.4290188043485338e-04 3.3214212757137457e-02  -6.7859406728776274e-04 5.8939719809918817e-04 8.4660419857667993e-02  2.2272013751610457e-03 -2.1830882241584792e-03 3.9818480164610932e-02  1.0425908011592396e-03 -1.4131859070760017e-03 3.7251000775905332e-02  2.2292371178219534e-03 -1.7675496978478721e-03 3.7713530176394255e-02  1.3766347167835690e-03 -2.6801613811357756e-03 3.8465184530973556e-02  4.2944249804888174e-04 -6.7804455190954242e-04 1.5399086835875439e-01  -5.9964716374215389e-03 -9.3472250018423683e-04 1.3642141503542357e-01  -5.5312866530364494e-03 -1.2369170250163938e-03 9.3768988296062214e-02  -1.0249422649093006e-02 -7.3022800034885363e-03 1.0612751087312491e-01  -6.3256336905039576e-03 -1.9607786875281764e-04 1.3052150872405280e-01  8.5128519367206137e-04 -1.4363732292338098e-03 1.2615415596473231e-01  2.2972182129844406e-03 -2.5686092009974855e-03 1.1979338523668209e-01  4.4125334017109925e-05 -2.2134823150105450e-04 3.1149426318969966e-02  4.1023582476862895e-05 -2.0079473645311492e-04 3.0858783745838003e-02  2.4662730244355980e-04 -2.2158047778990706e-04 8.1960729264100779e-02  1.4851282624396783e-04 -1.8788213043158014e-04 9.5345205946299388e-02  4.3266623387664717e-04 -1.0188509016949886e-03 8.7570747826103607e-02  8.3977428633832669e-04 -8.6038232073710357e-04 1.4436604314851725e-01  -2.7157203290436509e-03 -4.5910972738148082e-03 3.4397759372185345e-02  -1.0963183876786296e-03 -1.4003839323736389e-03 3.5871679987482870e-02  -6.0160885920774966e-04 -1.9914818759916063e-03 3.5563604860401284e-02  9.3547397950699849e-05 1.7034456442164921e-04 1.4076356293276882e-01  7.1547738318515935e-06 1.0976705196503482e-04 1.3444167930697870e-01  8.7350099652150852e-05 -2.8380895148157902e-05 1.3363820878737964e-01  1.6627297345267876e-04 -4.4908558870150527e-05 1.0269493692626107e-01  6.1802587342816136e-05 -1.7273383422692273e-05 9.2081376880296190e-02  1.3008159851933871e-04 8.9938771548412404e-05 1.3375239778814821e-01  3.4498996748111295e-05 9.1075610912496282e-05 1.6309403489281396e-01  5.9230646281540397e-05 -3.6516662518356772e-05 1.3839043528911449e-01  1.7797134546926463e-05 7.4604575847244542e-05 1.1021847010386343e-01  2.5965264367286271e-05 1.9511891019468199e-05 1.5831200666989864e-01  -2.9608587269448547e-05 -1.1901668421135442e-04 1.1105524621095118e-01  -3.7725855025406947e-04 4.5904357495227900e-04 3.2655840344961162e-02  -2.6944166839245487e-04 3.4477464011507618e-04 3.2246495735615457e-02  -4.3262322831017955e-04 -9.7611473130282834e-05 9.2628072159793115e-02  -1.9223358224812936e-04 -2.7505036277858527e-04 6.9442152973628810e-02  3.2723344336834604e-05 -4.5715972244129679e-05 1.5134834337524244e-01  -6.3207113868997674e-06 5.5467800949199437e-05 1.0583491004633346e-01  -1.3396155619684985e-05 3.3249002744780382e-05 1.6240685925052248e-01  -2.8975641754418505e-04 3.1990218895386671e-04 3.2233176280586598e-02  -2.4308910706292175e-04 3.1097950751724700e-04 3.1783469696423629e-02  4.6177319590462538e-04 1.6593144622341880e-04 1.1989409472393622e-01  7.4972579629279686e-05 -2.0489901811369143e-04 9.3804542535523505e-02  9.1177958281903602e-05 -2.2426407784437089e-05 1.1191867465140022e-01  -5.5545039758145917e-05 -1.9072657580805516e-04 1.0354492133114342e-01  -4.0294326068522312e-05 -3.1836749051326543e-04 1.6051255863463501e-01  -2.3198104045082100e-05 -4.0384828099548452e-05 3.0461617730494450e-02  -1.5845671543770185e-05 -4.1592032692191901e-05 3.0437301653960296e-02  -5.1870873428088484e-05 -1.0296577135572785e-04 3.0620065167259618e-02  -1.3799885162857871e-04 2.4151642924921421e-05 9.3078650883619454e-02  2.5309055998296164e-05 -3.5084918983498401e-05 1.6303089484848882e-01  -1.4151697042773916e-05 -6.7177545732051547e-05 1.6397567033102603e-01  8.8764203701983862e-05 4.2185384313005766e-04 1.3497852662573018e-01  1.8935030487451498e-04 6.3235458175231032e-05 1.5003273567147166e-01  1.5445464336786706e-04 1.4996098222673629e-04 1.5372979717088503e-01  1.8957719008932727e-04 2.8693537322633041e-05 1.4413816778975613e-01  -3.8849861911830581e-04 -4.2961118460043400e-04 3.2716568996729228e-02  -2.4637975825747603e-04 -2.9327760564479201e-04 3.2107421415822984e-02  -9.1566913123614750e-05 -1.4053494628191206e-04 7.1843746979059889e-02  -4.9504445602717949e-04 -8.9300727597240801e-05 8.7562855339376064e-02  -1.9306403309194748e-04 2.4642388488758748e-04 1.3168121416503864e-01  -2.2339253635719934e-04 3.2777629027483227e-04 1.3971386682237635e-01  -1.4292022658120677e-03 -4.5181125735632640e-04 1.5673557131602819e-01  -1.8144718540300934e-03 7.7127499356850098e-04 1.4388664545311444e-01  -3.1319294229061228e-03 3.7879773671307946e-03 1.2352872555770306e-01  -3.8501328977514808e-03 1.6482811541701252e-03 1.2468707065990081e-01  -8.1575916480602344e-03 7.5400235402616764e-03 1.2003372763437888e-01  -1.6476983493442237e-05 -9.9593535287049934e-07 1.7084245188146133e-01  -3.3394842821890511e-05 -1.7321252016768364e-05 1.6064384192697365e-01  -1.2612696784188474e-04 7.0432854308989578e-05 1.4735995920961814e-01  6.8350803755098198e-05 2.6345539274397083e-05 1.7552340685853074e-01  -1.5601045862498537e-05 1.2042616234051531e-04 1.5310864296244620e-01  -1.1486110603530198e-04 6.1128976846873032e-05 1.5570314532074167e-01  -8.1966197547362767e-05 5.1009153970176221e-05 1.6829532107017522e-01  6.7896597108439829e-05 -3.9689454399083323e-06 1.4439273361745375e-01  7.6735200605524017e-05 -4.5375931259409165e-05 1.4651078399929066e-01  -1.0612540978114461e-04 -3.1196062085622421e-05 8.5608506251710917e-02  -5.8801706393273833e-05 6.4611064375448449e-05 1.1287166496980904e-01  -3.9783834771042623e-05 4.8645138042181479e-05 1.1706198595548682e-01  8.2648915442047364e-06 -3.7248902969521474e-05 7.4528377894259021e-02  2.6749715937144381e-05 9.7570271492133804e-05 9.0925268463817446e-02  -2.1942139395308228e-05 2.0881506553891034e-04 1.1211241761039230e-01  9.2679477816883822e-05 -1.3613650375138075e-04 9.1665526378276421e-02  8.1789658386287816e-05 1.9726110530967047e-04 8.6581885451183616e-02  4.0376385467957064e-03 -5.6477670662455556e-03 8.1658086131123311e-02  4.5467663959870295e-03 -4.3391172942540048e-03 8.9652478388455109e-02  1.9400384964929924e-03 -1.6904109075213387e-03 7.6259868254930530e-02  9.9896203957963638e-03 -9.1137598010497412e-03 1.1975107824055746e-01  -1.3550176913389516e-02 -6.9655220831489678e-03 1.2281934214682247e-01  -1.0170432663907001e-02 -1.4092154799982295e-02 1.2160290960621306e-01  -1.1885022783635953e-03 6.1464617556996498e-04 3.5927680276874242e-02  -1.9149952048055274e-03 9.6162320623064009e-04 3.6241774900890394e-02  -9.3095216364399958e-04 5.8374969577806553e-04 3.4742268435787184e-02  -1.0836076683598368e-03 8.5517311553915201e-04 7.8349756033996729e-02  3.3125797055816460e-03 -1.2924679406262754e-02 1.2434001754228664e-01  3.0221498650755341e-04 -1.8360769705664626e-02 1.0796633649685410e-01  2.1794226481291110e-03 -9.1441395736345001e-03 9.4366438344210296e-02  -4.4702206078073648e-03 -4.7447292713570935e-03 8.5713247561175362e-02  6.1649256428644222e-03 3.8586643703478539e-03 1.3405071466705820e-01  7.8466061366306416e-03 8.5175077827837394e-03 1.1958912467434518e-01  1.1111703270373132e-02 7.1588453284098666e-03 1.0398404449269222e-01  4.2518025400803457e-03 3.4059573164519998e-03 1.0492421331836448e-01  -1.4500567911436499e-05 -4.7949523365578954e-05 3.0402862685438421e-02  5.7496199940335276e-06 -3.7637228678524961e-05 3.0395917463002554e-02  -4.6236237949478889e-05 -2.1149726836918991e-05 1.1036321528658272e-01  -1.0657201033332237e-03 1.2704833429533601e-03 3.6983631328506947e-02  -2.3842081948097361e-03 2.0730107234450605e-03 3.7013415197110780e-02  -2.2269471947041065e-03 1.9665626829401374e-03 8.2906325652621987e-02  5.9737551888088473e-05 -1.5829686608772139e-04 1.6844218696572144e-01  