<?xml version="1.0"?>
<VTKFile type="UnstructuredGrid"  version="0.1"  >
<UnstructuredGrid>
<Piece  NumberOfPoints="857" NumberOfCells="3763">
<Points>
<DataArray  type="Float64"  NumberOfComponents="3"  format="ascii">-0.0182597916573 0.126128911972 -0.119588643312  -0.0077641364187 0.0512270443141 -0.07050477713349999  -0.0237180162221 0.16240182519 -0.053058128804  -0.107877351344 0.105669431388 -0.0502408407629  -0.0444478429854 0.116080775857 -0.00235075876117  0.0393674038351 0.112876079977 -0.0491501875222  0.0248903874308 0.0489483103156 0.000152088920004  0.0314915925264 0.114928804338 0.0218031276017  -0.0657326281071 0.0685198307037 0.0497140102088  -0.0355357266963 0.164656624198 0.0508319064975  -0.010538729839 -0.0422629192472 -0.208358153701  -0.0239527057856 0.0135364839807 -0.242119863629  -0.0194642152637 -0.0775559768081 -0.263431429863  -0.08492307364939999 -0.0108216870576 -0.280446648598  -0.08293507993220001 -0.0361198186874 -0.159778758883  -0.0240796487778 -0.0824203491211 -0.148982465267  0.0430508553982 -0.121076337993 -0.234084427357  0.0307756774127 0.0324950888753 -0.198437720537  0.00352357281372 -0.00433266581967 -0.144715368748  -0.0456651262939 0.08372022956609999 0.342343091965  -0.116630032659 0.0117083769292 0.386158525944  -0.08223126828669999 0.0577075146139 0.289406776428  -0.0511222109199 0.00205342215486 0.300772219896  -0.0125984866172 0.0267426930368 0.351842552423  0.0303636882454 0.0561947338283 0.391145974398  -0.0524924062192 0.0543583929539 0.40361738205  -0.07944945245979999 0.130002260208 0.441037595272  -0.000730989675503 0.119443200529 0.385622620583  -0.078488714993 0.137875169516 0.332541137934  0.0142801422626 0.110509291291 0.27100610733  0.0224165506661 0.08303219079970001 0.331783413887  -0.0170432701707 0.161798536777 0.30022162199  0.000811119796708 -0.0515509881079 -0.08419398218390001  0.0888616070151 -0.015075173229 -0.0776951387525  -0.0989535748959 -0.0518730916083 -0.08125374466180001  -0.0433920919895 -0.09785594791170001 0.0106235472485  -0.0488061010838 0.0295096840709 -0.0131453983486  -0.25 0.25 0.5  -0.166666666667 0.25 0.5  -0.25 0.195066730511 0.445658150344  -0.19506166517 0.25 0.445542865294  -0.0213422998786 -0.126349791884 -0.045622177422  -0.117952652276 0.0158270020038 -0.16616243124  -0.0531469397247 0.0490713231266 -0.13630309701  0.0358348339796 -0.131537660956 -0.134171053767  0.0583617314696 -0.115307979286 -0.0462360456586  0.010585160926 -0.0606908276677 0.314250290394  0.078067921102 -0.133790805936 0.331458956003  0.0206208750606 -0.104583717883 0.36723652482  0.0300164371729 -0.13569638133 0.270959883928  0.0797956883907 -0.07311873137949999 0.388136893511  0.0291880238801 -0.0850581228733 0.220644980669  0.0788302049041 -0.07555303722620001 0.284453928471  -0.0465739220381 -0.108428947628 0.305151432753  -0.056692365557 -0.0812899768353 0.234353885055  0.10282895714 0.0630551427603 -0.0452189296484  0.178613707423 0.153893724084 -0.0703043565154  0.0750898644328 0.130835875869 -0.116260357201  0.0179002508521 -0.0400723591447 0.396018892527  0.07961820065980001 -0.020668130368 0.232235535979  -0.00726175494492 -0.022667773068 0.242156982422  0.0524490773678 0.0171752162278 0.310696065426  0.0103002395481 0.0813155695796 0.107229083776  0.00225681974553 -0.008687185123560001 0.0457225777209  0.177950121638 0.25 0.0405701099774  0.151375159621 0.202163234353 -0.00268407491967  0.13042794168 0.172564610839 0.0599601529539  0.184557154775 0.16295710206 -0.00737970136106  0.0827306732535 0.011830884032 0.0299163535237  0.106673434377 0.0676268041134 0.0663062110543  0.25 0.25 0  0.25 0.177947182503 0.0435581305687  0.0251978598535 -0.0201241951436 -0.0233656335622  -0.25 -0.25 0.25  -0.175495340629 -0.25 0.295351832328  -0.25 -0.175776260788 0.294629825204  -0.164853364229 -0.189889326692 0.246240898967  0.111295968676 0.25 -0.00354384794953  0.0417815256417 0.25 0.0264120515999  0.0577150444892 0.25 -0.0418173710713  0.035034801811 0.196921139956 -0.0497792549431  -0.115254960954 0.0352221727371 -0.0357825122774  0.0360979661345 0.0743419006467 -0.130612716079  0.08110298216340001 0.0143552683294 -0.135737240314  0.0281950440258 0.110801942647 -0.38559025526  -0.000352636008756 0.154027625918 -0.45018479228  0.0220217909664 0.07910815626379999 -0.445265561342  -0.041934799403 0.09297795593740001 -0.440330862999  -0.115356497467 0.128115877509 0.0303980205208  -0.08144567906859999 0.192924261093 -0.0396481454372  -0.0503155887127 -0.140062868595 0.370642662048  0.0181560348719 -0.191118896008 0.319997102022  -0.09442232549189999 -0.0766885429621 0.347179293633  -0.10306725651 -0.0245223585516 0.261891931295  -0.0371639840305 -0.192689821124 0.258922994137  -0.08778057992460001 -0.193450272083 0.293951839209  -0.116932563484 -0.137108251452 0.278956532478  -0.0434515699744 -0.19969072938 0.340430229902  -0.016621209681 -0.143479332328 0.208528921008  -0.0799133181572 -0.177766740322 0.206858798862  -0.0340202823281 -0.07231882214550001 0.405357718468  -0.153045728803 -0.0703692808747 0.28540495038  -0.0647673308849 -0.069349065423 -0.297796696424  -0.0468406006694 -0.118580199778 -0.331259429455  -0.0636249184608 -0.122360698879 -0.235275790095  -0.137311711907 -0.115820750594 -0.279358655214  -0.25 -0.25 0.333333333333  -0.00222280388698 -0.0275516584516 -0.327156513929  0.0233143884689 -0.124395690858 -0.330935031176  -0.00544846989214 -0.0444226972759 -0.392852008343  -0.07202984392639999 -0.0450558848679 -0.379192590714  -0.128861442208 -0.0482712239027 -0.325591087341  -0.0319190612757 0.25 0.27473160228  0.0259018652141 0.196524605155 0.343851953745  -0.0424101948738 0.196461260319 0.324036180973  -0.08801463991400001 0.193724930286 0.280150324106  -0.051391992718 0.129726842046 0.244459152222  0.0793330296874 0.131078347564 0.273738384247  0.0304427426308 0.197590425611 0.258007407188  0.139736711979 -0.103549621999 0.308288753033  0.117407329381 -0.00031748006586 0.284001767635  0.17845864594 0.0137020656839 0.2717012465  0.133446916938 -0.07468281686309999 0.252671837807  0.193237304688 0.0103836003691 0.32706490159  0.108656100929 -0.016409387812 0.370573759079  0.195593327284 -0.0705924406648 0.374003827572  0.204297035933 -0.0882691517472 0.283604085445  0.15987212956 -0.0232784096152 0.211559042335  0.103109702468 -0.0715631917119 0.185957938433  0.25 -0.177950121638 0.0405701099774  0.25 -0.111295968676 -0.00354384794953  0.168315500021 -0.181550845504 -0.0129796266556  0.203061833978 -0.0839376300573 0.0201103240252  -0.123973377049 0.0421161539853 0.0831994190812  0.10652089864 0.041568480432 0.133020982146  -0.00508088478819 0.00464248098433 0.118765294552  0.0384838804603 0.0542355030775 0.219570666552  0.0556482039392 0.09942726045850001 0.165778696537  0.25 -0.25 0  0.25 -0.17904445884 -0.0421267671166  0.0085972994566 0.139411628246 0.206887423992  -0.0427397117019 0.0734880268574 0.199836358428  0.25 -0.25 0.166666666667  0.177338154858 -0.25 0.209433902167  0.178222204231 -0.25 0.126578397361  0.180748909712 -0.154124230146 0.180074676871  0.118582360446 0.0498475395143 0.233844980597  0.113276541233 0.115120351315 0.208414897323  0.068451166153 0.123325429857 0.09300038218499999  0.08695217221980001 0.18308262527 0.11987875402  0.1366494596 0.0978636816144 0.125807240605  0.0170362386853 0.165571182966 0.116205818951  -0.075325883925 -0.13042730093 -0.120773427188  -0.191016584635 -0.1764793396 -0.0778442546725  -0.102759346366 -0.20253264904 -0.07015967369080001  -0.126150563359 -0.115044787526 -0.0573479756713  -0.138729035854 -0.104583211243 -0.134180948138  -0.147993162274 -0.138949289918 -0.203295826912  -0.180331096053 -0.192031860352 -0.160557568073  -0.194399222732 -0.0846866071224 -0.148938387632  -0.11259970814 -0.078034222126 -0.193649172783  0.0326924659312 -0.122268341482 0.0296003930271  0.0215157996863 -0.180560961366 -0.0757267251611  0.0956164896488 -0.0493310950696 -0.0164182558656  0.112129375339 -0.112067811191 -0.105549775064  0.127802968025 -0.106147237122 -0.0110959038138  -0.0854129120708 -0.015297700651 0.056893799454  -0.0204317308962 -0.0795602425933 0.117458000779  -0.178222204231 0.25 0.126578397361  -0.177947182503 0.25 0.0435581305687  -0.107976816083 0.25 0.0905854563709  -0.157577678561 0.178241759539 0.0969507619739  0.25 -0.25 0.333333333333  0.25 -0.25 0.25  0.175776260788 -0.25 0.294629825204  0.25 -0.175495340629 0.295351832328  0.0932372882962 -0.0430554822087 0.0724518448114  -0.044769000262 -0.00661279587075 0.403999477625  -0.194478780031 -0.0247275307775 0.332954645157  -0.173761367798 -0.0806607827544 0.396263659  -0.137637495995 0.00523930834606 0.315887242556  0.0864742994308 -0.139340251684 0.176064118743  0.105438224971 -0.136641919613 0.253711819649  0.0308670303835 -0.25 -0.136809572586  0.0367561832589 -0.25 -0.219583441074  0.0925811678171 -0.20055809617 -0.19996842742  0.0127155454829 -0.193433105946 -0.225977659225  0.0415658205748 -0.200880005956 0.196522325277  0.0373581312597 -0.119548290968 0.120048768818  -0.0954102815882 -0.25 0.346414074494  -0.101368582479 -0.25 0.251933327382  -0.0374909392175 -0.25 0.286229296012  0.0852289572358 0.109103307128 -0.27055695653  0.07707493752239999 0.127253636718 -0.199824258685  0.128097131848 0.07648140937090001 -0.209757223725  0.154867321253 0.13628205657 -0.212952241302  0.08678253740069999 0.189277544618 -0.274375885725  0.127699971199 0.0803090333939 -0.326344817877  0.0577741526067 0.0601542405784 -0.31936660409  0.0525139421225 0.129102528095 -0.326874881983  0.0251371748745 0.175572559237 -0.261228203773  0.0199144631624 0.0927290171385 -0.265960127115  -0.148952946067 -0.121583275497 -0.374568909407  -0.25 0.177950121638 0.0405701099774  -0.25 0.111295968676 -0.00354384794953  -0.175531774759 0.135734900832 0.0562076568604  -0.178730383515 0.191659659147 -0.00562386959791  -0.0244714934379 -0.108516678214 -0.387223660946  -0.09279609471560001 -0.170035287738 -0.445968538523  -0.0281062982976 -0.0
[...]
<PointData  Vectors="f_68"> 
<DataArray  type="Float64"  Name="f_68"  NumberOfComponents="3" format="ascii">3.6151826335856722e-05 1.1009928980719584e-06 -1.9511923876032761e-02  -1.2185942928810444e-05 2.0646219344341784e-05 -1.9307029767884992e-02  -2.2398317520443306e-05 -5.3803254670750864e-05 -1.8454692324693586e-02  -6.8253152658215427e-05 2.8087231091798086e-05 -1.7215110076646098e-02  -5.1344660812763838e-05 -6.8547449560397976e-06 -1.9505065990612455e-02  6.9207047199972995e-06 9.1683212987995740e-05 -1.7888427645126367e-02  -1.5067317762404517e-05 3.3208515016097488e-05 -1.9505571114926252e-02  2.6437549593827982e-05 3.2104138627521188e-05 -1.8126298256246450e-02  -2.7912528147487417e-05 -3.0000614912935773e-05 -1.9388471828702705e-02  -5.8131866970974093e-05 1.0356242121585722e-04 -1.6145215273218983e-02  -1.2105419500973845e-05 3.3228716876652164e-05 -1.9690861228215874e-02  -8.5421721108466560e-06 5.2777222751730877e-06 -1.9539040452743479e-02  9.8952546226641457e-06 3.2901938127537664e-05 -1.9288419937375786e-02  -5.5900754777823153e-06 3.9748038122992339e-05 -1.9420396638778543e-02  4.6648894981241967e-05 5.0805132130000272e-05 -1.8692147966675034e-02  1.3987521555671755e-05 9.7686676668796865e-06 -1.9005946475791863e-02  4.5917741072824953e-05 -1.2540005110661103e-05 -1.8000594239993929e-02  1.0798507060793222e-05 1.5422272653684788e-05 -1.9464955156826027e-02  1.5100024166145643e-05 -2.1442251492122447e-06 -1.9439248532431334e-02  6.1866266755884668e-05 -8.3536658598541664e-05 -1.9401666967613841e-02  1.0126578953673964e-04 -2.4082989380978316e-05 -1.8735463607888164e-02  2.6868418654121808e-05 1.8148580384761565e-05 -1.8892650327460205e-02  4.0849602190660105e-05 2.7941125335022613e-05 -1.9330426001549352e-02  8.9254725975350927e-06 6.6852618850726960e-05 -1.9608271827053533e-02  -1.2155807248416883e-04 -3.2850974938412647e-05 -1.8816261063313106e-02  1.5730316081903411e-04 -1.3036481954664436e-04 -1.8871862478881292e-02  1.0296551740077640e-04 -1.2474961820593824e-04 -1.8407616747112592e-02  -3.4064120993217057e-05 -3.8917552124616622e-05 -1.7019358742210632e-02  6.5196957193148911e-05 -1.4754803316312291e-04 -1.8662147115824909e-02  -1.7880394200848899e-05 -1.5471495063420629e-05 -1.9258556435071603e-02  -5.3257413073135994e-05 -5.9146288811577070e-05 -1.8716241574412582e-02  -9.5722580753302144e-06 -7.3325412371708917e-05 -1.8779501928462394e-02  -9.9726059015929385e-06 2.1646935929429473e-05 -1.9501289426272411e-02  -4.3919247052145151e-05 1.3203804804734138e-05 -1.8785825722240541e-02  -4.7671577932868342e-05 -8.6182499945777051e-06 -1.8871391260440542e-02  -2.2702621149235573e-05 2.3951912187944417e-05 -1.9078963287647542e-02  -1.2989774854574494e-05 4.1547430706331671e-05 -1.9256224101849576e-02  5.0581115680055008e-05 -9.1127836924518065e-06 7.1575581866271845e-05  1.2459450657440998e-05 1.0311791531136426e-05 1.3533812397812547e-04  -2.1836277688628848e-06 1.9134293408551280e-05 9.9196865651541609e-05  8.6097104126433105e-06 3.2298348306335433e-06 5.0311709933325506e-05  -5.8048166623059707e-05 7.0773998203472674e-05 -1.7917080791809235e-02  5.0558182387645750e-05 6.0434988824918381e-05 -1.9177635271669286e-02  7.7800111815791476e-06 3.2365433099396440e-05 -1.9700080694993054e-02  -3.6569782446673725e-05 -1.6482569061714352e-05 -1.8740587035646239e-02  -3.3768548773172633e-06 -2.2763605646051521e-05 -1.7950526966798934e-02  -5.8242511272897156e-05 1.4325441402061252e-04 -1.9342505549840860e-02  -4.9231722500192273e-04 4.4007805744266271e-04 -1.8199880302121215e-02  -9.6685887510747863e-05 4.1092411712847409e-04 -1.8745328387888661e-02  -1.4629690947502678e-04 1.1452919014576537e-04 -1.7991715672016323e-02  -2.5217171057755430e-04 4.0759409915354789e-04 -1.8579737125532854e-02  -5.7293102657171157e-05 5.5535048126196451e-05 -1.9329195270226345e-02  -1.6414195097843451e-04 2.0974366543444331e-04 -1.8772202687645043e-02  -5.4294409653247853e-05 1.0332472575816707e-04 -1.7454232817313849e-02  -9.9015050462006179e-06 8.4595716085593314e-05 -1.8955935832068609e-02  -5.5342377575056568e-05 4.6153622017195153e-05 -1.8451169051211195e-02  1.8592824251319171e-04 3.0167124729432623e-04 -1.3346655914393732e-02  -3.8426096139428268e-05 3.2866866996616834e-05 -1.7233731670262490e-02  -2.4416528772306144e-05 1.4205544625865569e-04 -1.9241447426939253e-02  -1.0045326911318269e-04 7.6496944958931898e-05 -1.9134762515925729e-02  -3.0183534781152100e-05 5.7176978511222749e-05 -1.9387956555170605e-02  -5.4135307301696123e-05 3.9453130014603484e-05 -1.9209813619513790e-02  5.0053212626677072e-06 2.5798374917210703e-05 -1.9033536647440896e-02  -2.9230509053779964e-05 2.4951079170947625e-05 -1.9702002035746270e-02  -1.9767334031192425e-06 6.7507726574134379e-07 -4.2659150337253684e-06  2.7904099519546904e-04 4.2387405264962877e-05 -1.2607071228240264e-02  -8.9928477671780084e-05 -2.6266543990818158e-04 -1.4608731878340058e-02  -8.3215089689316584e-05 9.7444767231657028e-05 -1.4198989238810789e-02  -3.5090852912057954e-05 6.6920692538792741e-05 -1.9259319431553439e-02  -8.4038933888648811e-05 1.7174607786437083e-05 -1.8736933158008735e-02  -1.3900585756499547e-06 -3.8783419892723430e-07 -4.1561594308793376e-06  9.6150830065232110e-07 9.4664875488221785e-07 -4.7243580223663371e-06  -1.4758248201851428e-05 2.0851667978913970e-05 -1.9774101804617215e-02  -3.2237493322007472e-06 1.2185283254369458e-06 -1.4402260727963313e-05  -3.6189682403300337e-06 5.3517926347581304e-06 -7.0392618356723742e-06  6.1827512825241427e-06 4.6431788398235708e-06 -2.9155487191430792e-06  2.0893298177099861e-05 -2.0961965883766585e-04 -1.0972537044608082e-02  -2.0622612149953628e-07 4.0008463493445807e-07 -3.1657475810088508e-06  -8.2864650206063317e-07 -4.1685690884376583e-07 -4.1010272315761031e-06  -7.4485140012732954e-07 4.1915690553456456e-07 -4.4699534333118211e-06  -8.1074375605098080e-05 5.9805405061100365e-05 -1.4661912510133209e-02  -1.0354953637959260e-04 -2.1681244724944802e-05 -1.8266126220689023e-02  8.7049449694636085e-06 1.0172452864895364e-05 -1.9731945112919733e-02  4.6728402623593723e-05 -4.9133127253603460e-06 -1.8903122091405777e-02  -2.5102923249751208e-05 -6.9648533571725995e-05 -1.8349355476859862e-02  4.0578787987089137e-05 -1.8294133927876559e-04 -1.4782281492209549e-02  3.0772025144067461e-05 -1.9946716735898366e-05 -1.9185276581254827e-02  3.6386157317951458e-05 -1.7119404456415112e-04 -1.8810927317745380e-02  -5.3873836242333976e-05 -1.3231720675909890e-04 -1.8151975102817675e-02  -1.5786604402946028e-04 -1.3702935016543637e-05 -1.3101669824350482e-02  7.9057132113776379e-05 2.2863918699313492e-04 -1.7100204807996212e-02  -2.5737142294825330e-04 2.0789787545824013e-04 -1.6095849136672540e-02  2.1294043241651097e-04 3.0900349315274463e-04 -1.7387196560919426e-02  2.5949099217958531e-05 5.3377600014796307e-06 -1.9034256757580546e-02  -1.3095773908698268e-04 1.8711437363677088e-04 -1.5598630893540414e-02  -9.6772444423929482e-06 -4.4229246206404615e-04 -1.4704181115898374e-02  2.5347708504267506e-05 2.1953695673673905e-05 -1.7312598034158938e-02  1.6109247126341763e-04 3.4138838964273993e-04 -1.4643009867163949e-02  -2.2658491565109548e-06 7.6195519596304064e-05 -1.8780569617731870e-02  2.9938812224410790e-05 2.4266488788781096e-04 -1.5664997151524786e-02  2.1383781195137307e-05 2.0729144492878345e-04 -1.8627709877442760e-02  7.4473687312831435e-05 1.4016153020454948e-04 -1.3877458872303175e-02  5.2543632574815745e-05 3.2106669308710655e-05 -1.8994208395840411e-02  3.7349983518867542e-05 2.9226275226760325e-05 -1.8638883878480627e-02  1.8915020086093891e-05 -2.3266645756581878e-05 -1.7557318964899416e-02  -8.3348247853238451e-06 4.1915869634698618e-05 -1.6566005877752019e-02  -1.1429230998201036e-05 -7.0119698952552954e-06 -1.6832552634797496e-05  3.2110531630013946e-05 2.3107021209888742e-05 -1.9332839410920774e-02  -1.4980270893924420e-06 5.3832905676689842e-05 -1.9443445963465065e-02  1.9094693621894300e-05 8.4110132850026044e-05 -1.9203669508364208e-02  3.7126848323623774e-05 7.2229138100482116e-05 -1.8739049533093757e-02  4.9419267037005317e-05 6.9088138115416217e-06 -1.5876315042260992e-02  1.3184524564294441e-06 8.2417644161696722e-07 1.7415508714960165e-06  -1.1926759747806895e-04 7.5770248451576764e-05 -1.5626970809515778e-02  -1.5730549462625215e-04 2.0717390093979058e-04 -1.2345801028816498e-02  5.1345057281332286e-04 -2.9217734112981202e-04 -1.4385082472419319e-02  7.0527697094552137e-05 -4.4966311850152922e-05 -1.9330912903407084e-02  -1.1103689447587413e-04 -7.2366979042101477e-05 -1.6831525445716512e-02  5.2400485941965215e-05 -2.7033123470554434e-04 -1.7001001761446484e-02  -1.1689814984128661e-04 2.5227320038831360e-04 -1.8129710081633072e-02  -8.6696346954845060e-05 1.4097757532007197e-04 -1.8820117879478352e-02  -2.1713114298848554e-05 -9.1295851398015873e-06 -1.3856128251497500e-02  -1.7210815624503609e-04 1.5319188821445701e-04 -1.5825510527435773e-02  -3.1497120351355891e-04 2.2737547931250438e-04 -1.4678556224065994e-02  -1.2738779024049925e-04 2.9648350905339861e-04 -1.8277800940804282e-02  1.1774944580585603e-04 8.9035430855185951e-04 -1.4140746073214238e-02  -5.1056370932375683e-05 4.5122011621474389e-04 -1.6840197193549580e-02  -2.1222930335501101e-04 1.1942660696557687e-04 -1.7808512297275012e-02  -1.3145198317531152e-04 5.3337761650207396e-05 -1.6966471774302761e-02  2.7725031422282647e-06 6.5346401045879938e-07 -9.8406990375155359e-06  -7.0762527482269240e-07 -1.6774002960283898e-07 -7.5517909928210957e-06  -4.9012719129783242e-04 3.1918660984483506e-04 -1.4957923266550297e-02  2.4928505915920783e-04 -1.8162907111758732e-04 -1.2464611522856078e-02  8.4066732854915199e-05 4.6887500183300147e-05 -1.8566976881035226e-02  -8.1254492805229321e-06 3.9455358286308202e-05 -1.8342082814733634e-02  -6.3277257430054459e-06 1.3431179896723292e-05 -1.9418542065518910e-02  -2.8979892485712526e-05 2.3051058418998222e-05 -1.9381110073087165e-02  3.1715644865193935e-05 -3.9730494590617215e-05 -1.8984409560219871e-02  -2.9017248009045518e-06 1.6646843763798233e-06 -6.9561459927583047e-06  -3.6580509473511830e-07 1.0650132089237136e-06 -8.5234048969858612e-06  -5.3740975471284874e-05 -2.6606848527495720e-05 -1.6739578990249637e-02  2.9951089917472361e-05 3.2776251651144170e-05 -1.8878985756269572e-02  -2.7064033052452374e-08 2.5695877962719024e-06 -1.8589678498686449e-05  -8.4278680787053072e-06 3.6942446673482335e-06 -2.3703437087713194e-05  -4.3477600484967645e-06 2.4501959486219326e-06 -1.4263250476760329e-05  -1.1719246757622338e-04 1.6203180829430059e-04 -1.5351768454062232e-02  -6.1152529134634410e-05 2.8330307374984516e-05 -1.8273024777214597e-02  -1.9091759663548840e-05 -5.4721545804146088e-05 -1.6649290324859591e-02  -4.5427936986651805e-05 3.5729039496305264e-05 -1.8742550687634765e-02  -4.6711134473563770e-07 -1.1218693354699722e-04 -1.5792937005310089e-02  -5.6224905319254969e-05 -1.5460612857821177e-04 -1.4711885328058468e-02  1.8350143177816179e-04 6.5488120222648702e-06 -1.4750729261904766e-02  -1.2042899819082329e-05 6.7844137706560845e-05 -1.7537591953557689e-02  -3.2604940209675685e-04 -2.8392750481273855e-04 -1.4740844076446623e-02  1.2786899116186054e-04 -1.7592310587436039e-04 -1.2380551552107854e-02  -9.1684584728454036e-05 -8.3387293080748858e-05 -1.6669121943606067e-02  1.5066024450274858e-05 1.1228484650222320e-04 -1.5196045571185550e-02  9.5750134547801553e-05 -2.6857070243181748e-05 -1.6237383646175087e-02  7.5460921175478371e-05 1.1070846486842300e-05 -1.2749871069118169e-02  5.4912072902281080e-05 1.5611797175261885e-05 -1.5718981811254123e-02  7.3916427460370880e-05 -8.4990037779636761e-06 -1.8077171551729575e-02  -4.5195595788261876e-05 -1.6510222747720991e-05 -1.8487511262755090e-02  -7.7896061808471645e-05 8.1732213046669603e-05 -1.2297141013326896e-02  4.1768218821441094e-05 -1.2769072938079651e-05 -1.8244153116451254e-02  4.7988479990460234e-06 -4.4183382349913395e-05 -1.7221592193664249e-02  -1.8909695026042776e-05 4.0941203362461677e-05 -1.7850200592332555e-02  3.1580270461715563e-05 -4.3890636173283367e-06 -1.9234091965006885e-02  -3.1329790628965398e-05 3.6455844519952535e-05 -1.9530462163113875e-02  -2.9483185138247635e-08 5.0206791488460119e-07 -4.5425008345889399e-06  2.5636554706055672e-07 -7.9216348045338518e-07 -4.5007354782616435e-06  1.8330667138919695e-06 -2.3096754354117766e-06 -3.3111906116430980e-06  2.0076224462220057e-05 4.9948144942145177e-05 -1.3575080366287698e-02  -3.3389589326409973e-05 2.4566941391023791e-05 -9.3517827955523985e-05  -1.3816469568532730e-05 1.4171908390933406e-05 -4.0672956369322629e-05  -3.1532861756930025e-05 1.4550995015213591e-05 -4.5123774024229566e-05  -1.3354891728041217e-05 3.6712508035630834e-05 -5.5255593977591822e-05  -6.2754755464439394e-05 5.9125617504620531e-05 -1.8637802549539537e-02  9.8592619857721541e-05 4.3362790612764177e-05 -1.8999545696482538e-02  7.4038327239004108e-05 -6.7466556010964166e-05 -1.2075992368424023e-02  -2.1034872779282855e-05 4.3910834646524360e-04 -1.5389620128082378e-02  2.5387806235253429e-04 1.1897479227347213e-05 -1.6926455107789649e-02  -1.5568570891009715e-05 1.3247782081495356e-04 -1.5573242988368045e-02  -1.8858473914676308e-04 6.7649284923944792e-05 -1.7958494109562316e-02  -4.5694436392584540e-07 -3.5141690597232146e-07 -5.5439343154315511e-06  1.2254081198551683e-06 4.6930424424178179e-06 -5.0585740202014341e-06  3.8107890248586368e-04 -3.5771266920041318e-04 -1.3965328574326755e-02  -1.3738395570508851e-04 1.2052121262673881e-04 -9.4102614586954892e-03  -8.2752809110166572e-05 -8.8397859736318471e-06 -1.6936676836896342e-02  -3.8187392092484903e-05 1.2960743574486094e-04 -1.8046005293279942e-02  9.0516472620182125e-06 5.4977657107796206e-06 1.0064675282886764e-06  -2.4699827504039970e-06 7.6409454586165690e-07 -4.2007760342794486e-06  -1.0474113532096634e-05 -2.8667285441529235e-07 -4.6060848160477869e-06  6.7173667277989999e-05 -8.8652374064178776e-06 -1.8441133758118219e-02  1.1612888958930678e-06 -5.9080938077384879e-05 -1.8469460371284448e-02  4.2332004066938444e-05 7.0871098564539627e-06 -1.7769874729328922e-02  1.3205014471120082e-04 7.7568915760353589e-05 -1.6004172501394073e-02  3.0512129248496551e-05 -2.4875741735806258e-05 -1.5443844961229249e-02  3.2705128595930429e-06 9.4290312616575344e-06 -1.9159518725228409e-02  9.7656189132777282e-06 -1.4826168125449094e-05 -1.9214087417420794e-02  -3.3992706702729277e-05 -3.7459638418666079e-05 -1.6607036030807792e-02  -8.2913453906101301e-05 -5.0576071517373361e-05 -1.7649250045885516e-02  9.1039558723479915e-09 1.5080204512625308e-05 -1.9411498758353549e-02  7.6378101584823987e-05 -1.3101916030780955e-04 -1.6816804331772881e-02  4.6504266142133489e-07 -1.2996232093596333e-06 -4.2516539682877059e-06  -3.3529630199182237e-06 -6.0121499831151769e-07 -4.1807263862465029e-06  3.0827361387383465e-04 -3.7223834479734453e-04 -1.3602874138668265e-02  -2.9095514588407405e-04 -1.6247490616750069e-05 -1.3489293154078737e-02  3.0675729002958034e-06 2.3094875835057656e-04 -1.7469443531821748e-02  -7.5480770303574622e-07 1.9387239524671065e-04 -1.7031569643422305e-02  4.1116816574846753e-05 1.3822048583054207e-04 -1.9118169170620987e-02  -1.1114784813804231e-06 -1.1812615130660580e-06 -5.5837126780212402e-06  -1.4071341840446771e-06 2.9768170986371426e-07 -3.0747447802518837e-06  1.5631581578275924e-07 -1.2674594564662819e-04 -1.8862741455943195e-02  1.2288445001923197e-04 1.4047132882923868e-05 -1.4029433949343983e-02  -3.1297808787571321e-05 -8.2491953216581033e-05 -1.2870787987808522e-02  -6.6202814051503954e-05 1.4035095826266084e-04 -1.7207382677892305e-02  1.6761108230037787e-05 1.8792123580662965e-05 -1.9380456113238100e-02  1.3518852360587480e-06 2.0254434966299398e-07 -9.8634476921545650e-06  6.6887891299997164e-08 6.4183086304428530e-07 -8.0736251355693767e-06  -3.4290692286269479e-07 -9.3216038418224302e-08 -5.2699957018172114e-06  7.2998390072419374e-05 1.5317602265682363e-05 -1.5726071324248397e-02  2.6915036991226460e-05 1.6913748661469294e-05 -1.9084338420160284e-02  1.4077699848345638e-05 2.4452680856509886e-05 -1.9412210128807166e-02  -7.1137600004170190e-06 9.8234026638290757e-06 -1.6718949673120757e-02  4.6510107366024464e-05 1.6670186794769703e-05 -1.9093292760496788e-02  -3.2754666995602804e-05 -2.6577499321573617e-05 -1.9217829946704255e-02  9.3938218656340691e-06 5.4421933051892025e-06 -1.8462932495596409e-02  -2.2510745358625692e-07 -1.1549263619584726e-06 -5.8911355686193713e-06  -1.8057433130137027e-06 6.5541285914591547e-07 -5.3623047614428764e-06  -1.2749671563437625e-04 -7.1824316794792068e-05 -1.4302297802516791e-02  2.1185619442087296e-05 6.2243713324964099e-05 -1.3977145445519855e-02  1.3882460946941055e-04 -5.5233030092130527e-05 -1.8206154927921527e-02  6.3176412722467916e-05 -2.7118318663835188e-05 -1.8305165417594881e-02  -5.9361172317891018e-07 -8.1335810759211598e-06 -1.9010973460904391e-02  4.8069931566535341e-05 -7.2529259902912542e-05 -1.6887486676967899e-02  6.9914561505378240e-05 -1.1629651414067886e-04 -1.6674757495453933e-02  -1.5408741053831057e-05 5.2397589903996222e-05 -1.6397193009326565e-02  3.0420464563935099e-04 -1.4144358585599820e-04 -1.7134400225413592e-02  7.4419919209726829e-05 1.0815897012046290e-05 -1.9321207138643163e-02  1.8041924709645644e-04 9.0465247586440643e-05 -1.9723145369175379e-02  1.0669478812007715e-04 1.6981784010093756e-05 -1.7723860566969660e-02  1.6291850971835883e-06 6.3805542227761097e-06 -1.9285271922006623e-02  1.1676797395806088e-04 -5.7498745043698127e-05 -1.8990020762365809e-02  4.9675895707235861e-05 -8.6556377657412507e-05 -1.9242085746939919e-02  2.2343323845439732e-05 -2.5241681408267906e-05 -1.9389456570208383e-02  6.4887033951901963e-05 3.9213157138058234e-05 -1.7315210057513492e-02  -3.7862449432278636e-05 3.3170450441604408e-05 -1.7437637058306994e-02  8.0482373302579474e-05 -5.0582393146425650e-05 -1.1235484446053590e-02  -2.6973522234058650e-06 -3.2842144803783772e-05 -1.6532822472666242e-02  -2.7183441733239306e-05 -1.0028203203684017e-04 -1.8906911176675131e-02  -1.5095383276592439e-04 -1.5937412702941454e-04 -1.7609691886650292e-02  3.6988868587451436e-06 1.8012459354071174e-04 -1.6666797820333340e-02  -1.3972441482779959e-04 2.6102478934731739e-05 -1.5209878052893399e-02  -5.0842561973955888e-05 -7.4842815784851603e-05 -1.8032837459620955e-02  -7.7611627284226650e-05 -9.3840462106876144e-05 -1.3280978553308712e-02  -3.0211468011971253e-04 1.1517008556931228e-03 -1.3539299970804077e-02  -7.1688496977186415e-04 8.0045431789146058e-04 -1.2869764328187478e-02  -5.4100672863637956e-05 -1.0474743724285910e-04 -1.7049539038935101e-02  -8.0690113947373221e-04 1.0879394867762927e-03 -1.6672530490619578e-02  1.3870429019943321e-04 3.1170707277244350e-04 -1.7959952023193993e-02  1.3292589423845449e-04 2.7571934551705145e-04 -1.6542514941274549e-02  1.8860863623806023e-06 1.8111605444993555e-06 -4.8340193803101235e-06  3.5948857246838148e-06 -5.7040249078456842e-06 -4.5557822868984851e-06  -1.1172287580598024e-06 4.6305792593196249e-06 -3.5052738886041537e-06  1.4029287761733704e-04 -8.1475476814387549e-05 -1.5120846939124612e-02  -1.4326903909747717e-04 2.8583687679243245e-05 -1.7920184876955465e-02  -1.1731490677319974e-04 1.1700807209177764e-04 -1.6461225892834802e-02  -1.9683978075788180e-04 3.1159511661234517e-04 -1.5702696035777477e-02  2.4539834287821445e-04 3.3011390173348393e-04 -1.4861864338098208e-02  -1.4000612585504069e-04 -8.9487998814168058e-05 -1.8026739043024296e-02  -1.6242250417413054e-04 -1.9730675246491604e-04 -1.7312709400613819e-02  9.4341196729550399e-05 -9.8050083467091174e-05 -1.4339913656800740e-02  -1.0302841105524113e-04 -8.7770911721183991e-05 -1.5180318925219365e-02  1.5582948409470098e-06 3.0775884295951908e-06 -9.6363274348431863e-06  -4.7782256130920271e-07 2.8711254045752050e-06 -9.1731683535517755e-06  2.7092502140615686e-05 4.1137663441041220e-04 -1.6846221718547001e-02  1.1209846223114954e-06 2.0025583297866133e-06 -1.