<?xml version="1.0"?>
<VTKFile type="UnstructuredGrid"  version="0.1"  >
<UnstructuredGrid>
<Piece  NumberOfPoints="857" NumberOfCells="3763">
<Points>
<DataArray  type="Float64"  NumberOfComponents="3"  format="ascii">-0.0182597916573 0.126128911972 -0.119588643312  -0.0077641364187 0.0512270443141 -0.07050477713349999  -0.0237180162221 0.16240182519 -0.053058128804  -0.107877351344 0.105669431388 -0.0502408407629  -0.0444478429854 0.116080775857 -0.00235075876117  0.0393674038351 0.112876079977 -0.0491501875222  0.0248903874308 0.0489483103156 0.000152088920004  0.0314915925264 0.114928804338 0.0218031276017  -0.0657326281071 0.0685198307037 0.0497140102088  -0.0355357266963 0.164656624198 0.0508319064975  -0.010538729839 -0.0422629192472 -0.208358153701  -0.0239527057856 0.0135364839807 -0.242119863629  -0.0194642152637 -0.0775559768081 -0.263431429863  -0.08492307364939999 -0.0108216870576 -0.280446648598  -0.08293507993220001 -0.0361198186874 -0.159778758883  -0.0240796487778 -0.0824203491211 -0.148982465267  0.0430508553982 -0.121076337993 -0.234084427357  0.0307756774127 0.0324950888753 -0.198437720537  0.00352357281372 -0.00433266581967 -0.144715368748  -0.0456651262939 0.08372022956609999 0.342343091965  -0.116630032659 0.0117083769292 0.386158525944  -0.08223126828669999 0.0577075146139 0.289406776428  -0.0511222109199 0.00205342215486 0.300772219896  -0.0125984866172 0.0267426930368 0.351842552423  0.0303636882454 0.0561947338283 0.391145974398  -0.0524924062192 0.0543583929539 0.40361738205  -0.07944945245979999 0.130002260208 0.441037595272  -0.000730989675503 0.119443200529 0.385622620583  -0.078488714993 0.137875169516 0.332541137934  0.0142801422626 0.110509291291 0.27100610733  0.0224165506661 0.08303219079970001 0.331783413887  -0.0170432701707 0.161798536777 0.30022162199  0.000811119796708 -0.0515509881079 -0.08419398218390001  0.0888616070151 -0.015075173229 -0.0776951387525  -0.0989535748959 -0.0518730916083 -0.08125374466180001  -0.0433920919895 -0.09785594791170001 0.0106235472485  -0.0488061010838 0.0295096840709 -0.0131453983486  -0.25 0.25 0.5  -0.166666666667 0.25 0.5  -0.25 0.195066730511 0.445658150344  -0.19506166517 0.25 0.445542865294  -0.0213422998786 -0.126349791884 -0.045622177422  -0.117952652276 0.0158270020038 -0.16616243124  -0.0531469397247 0.0490713231266 -0.13630309701  0.0358348339796 -0.131537660956 -0.134171053767  0.0583617314696 -0.115307979286 -0.0462360456586  0.010585160926 -0.0606908276677 0.314250290394  0.078067921102 -0.133790805936 0.331458956003  0.0206208750606 -0.104583717883 0.36723652482  0.0300164371729 -0.13569638133 0.270959883928  0.0797956883907 -0.07311873137949999 0.388136893511  0.0291880238801 -0.0850581228733 0.220644980669  0.0788302049041 -0.07555303722620001 0.284453928471  -0.0465739220381 -0.108428947628 0.305151432753  -0.056692365557 -0.0812899768353 0.234353885055  0.10282895714 0.0630551427603 -0.0452189296484  0.178613707423 0.153893724084 -0.0703043565154  0.0750898644328 0.130835875869 -0.116260357201  0.0179002508521 -0.0400723591447 0.396018892527  0.07961820065980001 -0.020668130368 0.232235535979  -0.00726175494492 -0.022667773068 0.242156982422  0.0524490773678 0.0171752162278 0.310696065426  0.0103002395481 0.0813155695796 0.107229083776  0.00225681974553 -0.008687185123560001 0.0457225777209  0.177950121638 0.25 0.0405701099774  0.151375159621 0.202163234353 -0.00268407491967  0.13042794168 0.172564610839 0.0599601529539  0.184557154775 0.16295710206 -0.00737970136106  0.0827306732535 0.011830884032 0.0299163535237  0.106673434377 0.0676268041134 0.0663062110543  0.25 0.25 0  0.25 0.177947182503 0.0435581305687  0.0251978598535 -0.0201241951436 -0.0233656335622  -0.25 -0.25 0.25  -0.175495340629 -0.25 0.295351832328  -0.25 -0.175776260788 0.294629825204  -0.164853364229 -0.189889326692 0.246240898967  0.111295968676 0.25 -0.00354384794953  0.0417815256417 0.25 0.0264120515999  0.0577150444892 0.25 -0.0418173710713  0.035034801811 0.196921139956 -0.0497792549431  -0.115254960954 0.0352221727371 -0.0357825122774  0.0360979661345 0.0743419006467 -0.130612716079  0.08110298216340001 0.0143552683294 -0.135737240314  0.0281950440258 0.110801942647 -0.38559025526  -0.000352636008756 0.154027625918 -0.45018479228  0.0220217909664 0.07910815626379999 -0.445265561342  -0.041934799403 0.09297795593740001 -0.440330862999  -0.115356497467 0.128115877509 0.0303980205208  -0.08144567906859999 0.192924261093 -0.0396481454372  -0.0503155887127 -0.140062868595 0.370642662048  0.0181560348719 -0.191118896008 0.319997102022  -0.09442232549189999 -0.0766885429621 0.347179293633  -0.10306725651 -0.0245223585516 0.261891931295  -0.0371639840305 -0.192689821124 0.258922994137  -0.08778057992460001 -0.193450272083 0.293951839209  -0.116932563484 -0.137108251452 0.278956532478  -0.0434515699744 -0.19969072938 0.340430229902  -0.016621209681 -0.143479332328 0.208528921008  -0.0799133181572 -0.177766740322 0.206858798862  -0.0340202823281 -0.07231882214550001 0.405357718468  -0.153045728803 -0.0703692808747 0.28540495038  -0.0647673308849 -0.069349065423 -0.297796696424  -0.0468406006694 -0.118580199778 -0.331259429455  -0.0636249184608 -0.122360698879 -0.235275790095  -0.137311711907 -0.115820750594 -0.279358655214  -0.25 -0.25 0.333333333333  -0.00222280388698 -0.0275516584516 -0.327156513929  0.0233143884689 -0.124395690858 -0.330935031176  -0.00544846989214 -0.0444226972759 -0.392852008343  -0.07202984392639999 -0.0450558848679 -0.379192590714  -0.128861442208 -0.0482712239027 -0.325591087341  -0.0319190612757 0.25 0.27473160228  0.0259018652141 0.196524605155 0.343851953745  -0.0424101948738 0.196461260319 0.324036180973  -0.08801463991400001 0.193724930286 0.280150324106  -0.051391992718 0.129726842046 0.244459152222  0.0793330296874 0.131078347564 0.273738384247  0.0304427426308 0.197590425611 0.258007407188  0.139736711979 -0.103549621999 0.308288753033  0.117407329381 -0.00031748006586 0.284001767635  0.17845864594 0.0137020656839 0.2717012465  0.133446916938 -0.07468281686309999 0.252671837807  0.193237304688 0.0103836003691 0.32706490159  0.108656100929 -0.016409387812 0.370573759079  0.195593327284 -0.0705924406648 0.374003827572  0.204297035933 -0.0882691517472 0.283604085445  0.15987212956 -0.0232784096152 0.211559042335  0.103109702468 -0.0715631917119 0.185957938433  0.25 -0.177950121638 0.0405701099774  0.25 -0.111295968676 -0.00354384794953  0.168315500021 -0.181550845504 -0.0129796266556  0.203061833978 -0.0839376300573 0.0201103240252  -0.123973377049 0.0421161539853 0.0831994190812  0.10652089864 0.041568480432 0.133020982146  -0.00508088478819 0.00464248098433 0.118765294552  0.0384838804603 0.0542355030775 0.219570666552  0.0556482039392 0.09942726045850001 0.165778696537  0.25 -0.25 0  0.25 -0.17904445884 -0.0421267671166  0.0085972994566 0.139411628246 0.206887423992  -0.0427397117019 0.0734880268574 0.199836358428  0.25 -0.25 0.166666666667  0.177338154858 -0.25 0.209433902167  0.178222204231 -0.25 0.126578397361  0.180748909712 -0.154124230146 0.180074676871  0.118582360446 0.0498475395143 0.233844980597  0.113276541233 0.115120351315 0.208414897323  0.068451166153 0.123325429857 0.09300038218499999  0.08695217221980001 0.18308262527 0.11987875402  0.1366494596 0.0978636816144 0.125807240605  0.0170362386853 0.165571182966 0.116205818951  -0.075325883925 -0.13042730093 -0.120773427188  -0.191016584635 -0.1764793396 -0.0778442546725  -0.102759346366 -0.20253264904 -0.07015967369080001  -0.126150563359 -0.115044787526 -0.0573479756713  -0.138729035854 -0.104583211243 -0.134180948138  -0.147993162274 -0.138949289918 -0.203295826912  -0.180331096053 -0.192031860352 -0.160557568073  -0.194399222732 -0.0846866071224 -0.148938387632  -0.11259970814 -0.078034222126 -0.193649172783  0.0326924659312 -0.122268341482 0.0296003930271  0.0215157996863 -0.180560961366 -0.0757267251611  0.0956164896488 -0.0493310950696 -0.0164182558656  0.112129375339 -0.112067811191 -0.105549775064  0.127802968025 -0.106147237122 -0.0110959038138  -0.0854129120708 -0.015297700651 0.056893799454  -0.0204317308962 -0.0795602425933 0.117458000779  -0.178222204231 0.25 0.126578397361  -0.177947182503 0.25 0.0435581305687  -0.107976816083 0.25 0.0905854563709  -0.157577678561 0.178241759539 0.0969507619739  0.25 -0.25 0.333333333333  0.25 -0.25 0.25  0.175776260788 -0.25 0.294629825204  0.25 -0.175495340629 0.295351832328  0.0932372882962 -0.0430554822087 0.0724518448114  -0.044769000262 -0.00661279587075 0.403999477625  -0.194478780031 -0.0247275307775 0.332954645157  -0.173761367798 -0.0806607827544 0.396263659  -0.137637495995 0.00523930834606 0.315887242556  0.0864742994308 -0.139340251684 0.176064118743  0.105438224971 -0.136641919613 0.253711819649  0.0308670303835 -0.25 -0.136809572586  0.0367561832589 -0.25 -0.219583441074  0.0925811678171 -0.20055809617 -0.19996842742  0.0127155454829 -0.193433105946 -0.225977659225  0.0415658205748 -0.200880005956 0.196522325277  0.0373581312597 -0.119548290968 0.120048768818  -0.0954102815882 -0.25 0.346414074494  -0.101368582479 -0.25 0.251933327382  -0.0374909392175 -0.25 0.286229296012  0.0852289572358 0.109103307128 -0.27055695653  0.07707493752239999 0.127253636718 -0.199824258685  0.128097131848 0.07648140937090001 -0.209757223725  0.154867321253 0.13628205657 -0.212952241302  0.08678253740069999 0.189277544618 -0.274375885725  0.127699971199 0.0803090333939 -0.326344817877  0.0577741526067 0.0601542405784 -0.31936660409  0.0525139421225 0.129102528095 -0.326874881983  0.0251371748745 0.175572559237 -0.261228203773  0.0199144631624 0.0927290171385 -0.265960127115  -0.148952946067 -0.121583275497 -0.374568909407  -0.25 0.177950121638 0.0405701099774  -0.25 0.111295968676 -0.00354384794953  -0.175531774759 0.135734900832 0.0562076568604  -0.178730383515 0.191659659147 -0.00562386959791  -0.0244714934379 -0.108516678214 -0.387223660946  -0.09279609471560001 -0.170035287738 -0.445968538523  -0.0281062982976 -0.0
[...]
<PointData  Vectors="f_68"> 
<DataArray  type="Float64"  Name="f_68"  NumberOfComponents="3" format="ascii">2.7446124689805892e-05 1.2852482804330710e-05 -1.9608413188258338e-02  -3.1603919579061067e-05 4.8776305244091195e-05 -1.9314236692265833e-02  -4.1176605234412765e-05 -4.6914149435045608e-05 -1.8453735154273031e-02  -7.7574897041655474e-05 4.3260027779851244e-05 -1.7114696716067072e-02  -6.9583780705554350e-05 1.3521030551638754e-05 -1.9600811044176197e-02  -4.7955070896838163e-06 1.2993218035962004e-04 -1.7771972390080850e-02  -4.1708717099541756e-05 8.0370960582164908e-05 -1.9527570349757578e-02  1.2098939560876107e-05 7.3538128786822704e-05 -1.8086612059601093e-02  -5.4265019828483469e-05 8.3931114064202124e-06 -1.9387820569189300e-02  -8.4550972967095111e-05 1.5061974871019505e-04 -1.6151519732857698e-02  -2.5102450964392265e-05 4.8281932521655476e-05 -1.9751609308242764e-02  -1.5705145608811029e-05 1.7364710062983565e-05 -1.9583023026378349e-02  4.6639984756374950e-06 4.1593702788060155e-05 -1.9326510179426940e-02  -1.1770838330308802e-05 5.2081643891552556e-05 -1.9478408369838749e-02  4.2581191554096550e-05 7.2631710362793005e-05 -1.8568327398671876e-02  -8.3038270035721291e-08 2.5002784573334762e-05 -1.8990105811474776e-02  3.9163447291551241e-05 -1.5407996995511011e-05 -1.7908591995131201e-02  1.8216566658749936e-06 3.0752190383467793e-05 -1.9465710435294267e-02  1.7123379837708996e-06 1.2827738441559734e-05 -1.9447211180301776e-02  8.2143222324903214e-05 -6.9331017113544852e-05 -1.9138043446167003e-02  1.1011843911928726e-04 2.2723059341984254e-05 -1.8414697586421603e-02  1.7118618702419932e-05 7.0942890726528342e-05 -1.8677323220784685e-02  -5.4353974373788266e-06 1.3691261505762250e-04 -1.9104395348499677e-02  -1.2326531204393212e-04 2.7167836165672418e-04 -1.9309102583919709e-02  -2.7341580124110596e-04 1.1325533982056502e-04 -1.8319738418877362e-02  2.6416802434887487e-04 -1.8095900486319761e-04 -1.8395872659596912e-02  1.6228115043392960e-04 -1.9319452519277452e-04 -1.8058646787975897e-02  -3.9039590354457719e-05 -4.9982315330365515e-05 -1.6548766828355689e-02  2.5292471820211363e-04 -1.7583691659921356e-04 -1.8504314368853879e-02  -5.8265238720964260e-05 6.6307651087328597e-05 -1.9106910084623219e-02  -1.2472105265165338e-04 1.7735643859039837e-05 -1.8422386759690729e-02  -7.8874731626694907e-06 -4.2045950374460994e-05 -1.8494400322815432e-02  -3.5731052500532500e-05 5.0014341618923680e-05 -1.9573373370980654e-02  -6.8353248622503283e-05 5.2452062131184256e-05 -1.8842854916765153e-02  -7.1684461167502108e-05 1.0839321876892197e-05 -1.8923435168952493e-02  -6.1123291588510083e-05 6.5558092277167391e-05 -1.9095554664861368e-02  -4.5047478625991628e-05 8.6989825923141975e-05 -1.9279438299165463e-02  1.4393938169642506e-04 -2.3616401186760471e-05 1.8473441952176629e-04  2.8290419024107237e-05 4.9205484620023501e-05 3.5550295812258415e-04  -1.2345915190726615e-05 4.3429851304214832e-05 2.7233969443228031e-04  2.3256707865784562e-05 1.4439435615008375e-05 1.5023294692529421e-04  -9.4242396696653333e-05 1.0717170252840612e-04 -1.7960251116062770e-02  3.9449249567585884e-05 8.0683126931634420e-05 -1.9224848007799025e-02  -2.4282000340550252e-06 5.0269974222781619e-05 -1.9809811035492227e-02  -6.2225491690029832e-05 -1.1414023499712260e-05 -1.8746165759518593e-02  -3.8800808949512175e-05 4.0162981913654573e-06 -1.7939444969221601e-02  -3.3328162402019559e-04 4.8390055208774114e-04 -1.9090843547578958e-02  -1.6766437549690716e-03 1.2576178104589989e-03 -1.8332570803745625e-02  -6.0747712945782276e-04 1.1169742489020034e-03 -1.8304167768524251e-02  -5.6056345471655980e-04 3.8909222961534530e-04 -1.7880495071491916e-02  -9.1265156637000276e-04 1.2922423180025348e-03 -1.7955652926108404e-02  -2.6417669558027396e-04 2.6348711508119297e-04 -1.9354381507323670e-02  -5.4378230977880507e-04 7.2104042632835819e-04 -1.8608979012758303e-02  -3.0401931709290937e-04 3.0972308343941865e-04 -1.7136349244624711e-02  -1.4560392648671383e-04 2.3050991255268608e-04 -1.8839944068990599e-02  -8.0511282942923596e-05 8.4748932601203100e-05 -1.8468130634103068e-02  1.9338878174483774e-04 3.4574613856573714e-04 -1.3622542357078313e-02  -5.3714384608955559e-05 5.0444441487541858e-05 -1.7340322521812744e-02  -2.2997500934135060e-04 4.5942787520237074e-04 -1.8698401734463792e-02  -2.7894148214009033e-04 3.3762774034664012e-04 -1.9093487901499930e-02  -1.4086101127409428e-04 2.3676733161698016e-04 -1.9290463011475412e-02  -2.3094386162504516e-04 2.7253130169432795e-04 -1.8966124522004114e-02  -2.5406093465006907e-05 8.8973782103124062e-05 -1.9006843153759643e-02  -8.3395437271061411e-05 8.6641329149023886e-05 -1.9769961914577524e-02  -5.3601903805312508e-06 9.2287310786967012e-06 -2.0293731659970037e-05  2.8147061424805783e-04 8.0110380336594959e-05 -1.2964226618591885e-02  -9.4492772644905469e-05 -2.8861664863289051e-04 -1.4625511926902224e-02  -8.6966103676903807e-05 1.6467834097915669e-04 -1.4601403354171295e-02  -7.4898181113941268e-05 1.4028953493134974e-04 -1.9293075192965921e-02  -1.2554776647592469e-04 7.2262735352421838e-05 -1.8674208839812332e-02  -4.4216092844647191e-06 4.0894177300068617e-06 -2.3759657642288490e-05  -9.3234952489317541e-07 1.1432454677827025e-05 -2.3059292093357884e-05  -4.9345298202124387e-05 6.9169558957746545e-05 -1.9886183080448667e-02  -1.7213461708941851e-05 1.3447133756828642e-05 -1.5330148668194916e-05  -3.3423495230744652e-05 1.8304504406323970e-05 1.1263397479394002e-06  -5.3390997544254985e-06 1.9582384709728751e-05 7.6278309526701510e-06  -4.1938651722281804e-05 -2.1258584552591244e-04 -1.1414727340695714e-02  -5.2657912048416546e-06 5.0775216055847352e-06 -2.2167878467052525e-05  -5.4027215551648456e-06 3.5294522543214038e-06 -1.9959297092193487e-05  -4.7867872250716719e-06 2.3491297689086521e-06 -2.5000867158048436e-05  -1.1074718862359007e-04 7.9855153010284483e-05 -1.4859992030815944e-02  -1.3907309402975252e-04 -3.5339567066282730e-06 -1.8250336720629212e-02  -9.8733795943648858e-07 2.9810775076447652e-05 -1.9857289180440250e-02  4.1027492018432499e-05 1.4864255850593767e-05 -1.8870560856026428e-02  -2.7675460464667269e-05 -7.3076444553046220e-05 -1.8293600064345779e-02  3.3637572001735789e-05 -1.8209022281398066e-04 -1.4836694019606498e-02  3.4932046968286218e-05 -1.9921624590886462e-05 -1.9194586286013542e-02  3.8167916324898103e-05 -1.8262321685421392e-04 -1.8905280706193000e-02  -9.1357126453068651e-05 -1.2739350699895967e-04 -1.8290487468556715e-02  -1.6007328667458522e-04 -5.4641922164409952e-05 -1.3315224051285001e-02  -1.0701394206989722e-04 4.3872243382356806e-04 -1.6595351225208530e-02  -7.4285057689977825e-04 4.0655349226734042e-04 -1.6359528884708575e-02  2.9550645317129391e-04 6.2293867422279681e-04 -1.7108865403327699e-02  -2.6997147762450282e-05 9.4514502189471916e-05 -1.8878905847287387e-02  -3.8871441514177606e-04 3.4245630222124758e-04 -1.5835994366010797e-02  -1.4909333688241429e-04 -3.7908219284168607e-04 -1.4824372649419829e-02  -4.8559508001101404e-05 1.4873784511483832e-04 -1.7378466321201404e-02  2.1904108318481896e-05 6.1599780756115257e-04 -1.4908446821060526e-02  -1.9647573395516229e-04 2.2712562715398007e-04 -1.8765753954449259e-02  -8.3908134696234808e-05 3.4148609605251078e-04 -1.5710505983770145e-02  -1.5403137474700359e-04 4.5215288399651975e-04 -1.7942085471327793e-02  3.9933590704565467e-05 2.4244679658212150e-04 -1.3632040496398105e-02  6.0362308360332361e-05 3.8954247942152222e-05 -1.8937983481312481e-02  4.1266795193117612e-05 3.6145708428429472e-05 -1.8760266013807345e-02  8.2587043352117188e-06 -1.8278787739464228e-05 -1.7462462770451159e-02  -2.2261614624676928e-05 4.0746943979053968e-05 -1.6407571438498705e-02  -3.2663056854472568e-05 3.1245595935553669e-06 -1.4042264550562326e-05  3.3468402576728246e-05 3.2612335806444479e-05 -1.9348937905522695e-02  -3.9429070383404621e-07 6.0750623763458738e-05 -1.9581478312573185e-02  1.9498091142111872e-05 9.3144211314832739e-05 -1.9277612042768868e-02  4.1618257625897043e-05 8.1118071328408652e-05 -1.8799253470974817e-02  5.1569263992554441e-05 1.3394326983230069e-05 -1.5502435651989447e-02  -3.4197800453415247e-06 6.8365012775610653e-06 2.7052503914848371e-05  -2.2159985098738440e-04 1.4707569615962640e-04 -1.5543728559979278e-02  -1.5944430829902863e-04 2.2570737178853213e-04 -1.2312737848053217e-02  6.1842865463041148e-04 -3.4678165655678035e-04 -1.4782272651280919e-02  8.3660469335803154e-05 -1.8133217647561117e-05 -1.9324877909496344e-02  -2.0001146911262255e-04 1.7657315780398565e-05 -1.6546613921503524e-02  4.0752110233872193e-05 -2.4321200495928038e-04 -1.7290645121470150e-02  -5.6461989827447730e-04 9.8867826387793491e-04 -1.8356323322836744e-02  -3.4525212188924056e-04 5.8626274561316804e-04 -1.8707869164553630e-02  -1.1915634386173345e-04 3.1048948075683473e-04 -1.3614520492648967e-02  -3.7093452973757050e-04 6.7784764363650149e-04 -1.6057993758731001e-02  -6.0519416598096452e-04 7.9305340600970442e-04 -1.4486007907053611e-02  -4.8089535403091110e-04 9.5212511675555028e-04 -1.7759712953443071e-02  -4.2530936126155601e-04 2.6209910639911596e-03 -1.3806735056708007e-02  -4.0680193892362010e-04 1.3223439758580952e-03 -1.7596886791856881e-02  -3.6129187585114109e-04 4.3564210123451830e-04 -1.7831210690419857e-02  -3.5089873388055890e-04 3.0270704477554985e-04 -1.6932447644578970e-02  -5.8951765276289211e-06 1.8543204318955748e-05 -7.8703551230158709e-05  -5.2668444542705294e-06 1.3099701177565399e-05 -5.9763740139202073e-05  -5.6517401102753500e-04 3.6211064883304140e-04 -1.5658763292325961e-02  2.3225692443623554e-04 -1.5204540147427528e-04 -1.2735361515883071e-02  6.9593046598483342e-05 1.0183898309108148e-04 -1.8628679750677259e-02  -7.6601322591634985e-05 1.7120097257431523e-04 -1.8246684305501026e-02  -7.1579885565860660e-05 1.0553867397773627e-04 -1.9402180724468168e-02  -1.2090853027870668e-04 1.7110096791024814e-04 -1.9309018024306273e-02  6.7095390251731243e-07 3.3655919484068815e-05 -1.8855622853349300e-02  -1.3379744630245810e-05 1.3008091238207217e-05 -6.5206008950313918e-05  -2.8132107990852822e-06 9.4211707038292425e-06 -5.7862510910165455e-05  -1.0304711123243956e-04 3.7898703339289650e-05 -1.6560347866407976e-02  -7.7190376654826663e-06 1.1261782454343809e-04 -1.8726698306395846e-02  -2.7700850367420301e-05 4.4166106951713684e-05 -1.8723175546144633e-04  -1.0103593512086134e-04 6.1984872369059445e-05 -2.3338541860871319e-04  -4.7558913065259571e-05 2.2907895353987836e-05 -1.3628503473509933e-04  -3.1590293698651253e-04 3.9434061271396162e-04 -1.5962318840607670e-02  -1.6205337276917138e-04 2.4191448554846979e-04 -1.8201743271791294e-02  -7.5973234678715994e-05 4.0022634140194468e-05 -1.6533063481611338e-02  -8.7238303509875849e-05 8.4466674995099813e-05 -1.8782722831486826e-02  -2.8601744600669604e-05 -9.2709078748486461e-05 -1.6070793322083339e-02  -8.7365770537601621e-05 -8.3621822998282186e-05 -1.4527728301169432e-02  1.7135255482570480e-04 2.6610965837804524e-05 -1.4600554475844471e-02  -2.9382157964670208e-05 9.0598717800346778e-05 -1.7558132890680121e-02  -3.8643773672973023e-04 -3.2192441330570250e-04 -1.5219066023863892e-02  1.2857117683285393e-04 -1.6911857660256417e-04 -1.2727897910120028e-02  -1.2071368008717205e-04 -5.6774019088361170e-05 -1.6606669878677614e-02  7.1707426333278227e-06 1.3239432659486655e-04 -1.4936268728496079e-02  1.0719392790330159e-04 -2.4752359868399141e-05 -1.6183198306940181e-02  6.7438016283575630e-05 2.2107551181703922e-06 -1.3187595662382512e-02  1.1951314548919615e-04 9.5674234398881346e-05 -1.6316467883595202e-02  8.2904914644642540e-05 -1.5007093009794669e-06 -1.8030152554642211e-02  -1.1196140550143550e-04 2.7451627774557048e-05 -1.8576078839336686e-02  -1.2964273102496223e-04 1.0924344902084492e-04 -1.2553531449939270e-02  9.8865233123619973e-06 3.9783720888431640e-05 -1.8220360688256779e-02  -1.3440717531318223e-05 -2.3489584338261898e-05 -1.7209804934102915e-02  -5.3356563643721278e-05 8.0422328572094673e-05 -1.8082956412696458e-02  1.4345469982771234e-07 4.1055939322968189e-05 -1.9206802125695078e-02  -1.3976172151868981e-04 1.3683707529933993e-04 -1.9568931942617877e-02  -2.1934994117475844e-06 4.3409767412039577e-06 -7.1243321448887818e-06  -2.3172526049285423e-06 2.8935546223945281e-06 -1.4081629030741452e-05  -3.6150796006506573e-06 4.4860620096511312e-07 -9.6018984071680515e-06  8.3966986372590189e-06 9.4919599020608483e-05 -1.3682982536453529e-02  -3.8976190576742056e-04 3.6289401162506419e-04 -9.6517900271720367e-04  -1.2548036654692408e-04 1.4839744436882059e-04 -3.8635616156424524e-04  -3.1718688047830014e-04 1.9506129940613634e-04 -4.3203843645862969e-04  -1.2275636498228164e-04 3.7208238378630203e-04 -5.2980489734551824e-04  -1.3799793237260160e-04 1.5374937533035757e-04 -1.8635110573321748e-02  6.3493304040253203e-05 1.7577367613977495e-04 -1.8505847388733662e-02  1.0439579627657689e-04 -3.4441817463469763e-05 -1.2124475699815684e-02  2.9897435920716609e-05 6.7474140078026311e-04 -1.5274382111954740e-02  2.7618438080529172e-04 9.7565095466537811e-05 -1.6512622834178384e-02  -2.3395907775075625e-04 3.4514760003531264e-04 -1.5408135899385609e-02  -6.4200637005187454e-04 4.3750915953301342e-04 -1.8214587400195378e-02  -6.6365535509231130e-06 1.4951910692430339e-06 -3.8517265823704246e-05  -1.6641096802773500e-06 5.5042138954836540e-06 -3.6478572057699393e-05  4.1223638856683817e-04 -3.5254237199842356e-04 -1.4412104070237949e-02  -1.6416410067524658e-04 1.7791550735953636e-04 -9.1285701234269101e-03  -3.3097082010883228e-04 1.1144023212626967e-04 -1.7394510292021541e-02  -1.9673476321340142e-04 2.6240520809764914e-04 -1.8157372809942486e-02  -3.6300074519729825e-05 5.6449973870175447e-06 3.7053301976618447e-05  -5.1219136293351651e-05 1.3780345432853617e-05 -9.5886330842583875e-06  -1.2820908177433996e-04 2.3697127771237465e-05 -1.9226870981095745e-06  7.4226399784190159e-05 -1.1532971754864324e-06 -1.8310885424200674e-02  -1.0978776862974609e-05 -6.2276092782271447e-05 -1.8378641049651933e-02  4.1204451563938667e-05 1.5663894820678738e-05 -1.7748578834107510e-02  1.1055373243056902e-04 8.4121136525757052e-05 -1.5840042118466648e-02  4.8788243362375026e-05 -1.7933516296504294e-05 -1.5341749269775043e-02  -1.5027263724029041e-06 2.2201184831096263e-05 -1.9391372077731218e-02  7.8793850836141680e-06 -5.7783553658334222e-06 -1.9255722667257103e-02  -3.7006676973124129e-05 -3.3128734802164799e-05 -1.6534418199580361e-02  -1.1474971896270778e-04 -5.4780915486597101e-05 -1.7369563363301272e-02  -7.5631436636756334e-06 2.6425283882208616e-05 -1.9503318368332769e-02  7.5742563681559146e-05 -1.5628243024326142e-04 -1.6763136624274803e-02  -2.5950037581534904e-06 2.0640686833844126e-06 -1.4679522368098673e-05  -4.5421433257039086e-06 4.0372590094742234e-06 -1.7608167074424650e-05  3.8098162083900734e-04 -4.1765732421026209e-04 -1.3920025762592100e-02  -3.6529194728042669e-04 2.4133373914662935e-05 -1.3844939042865507e-02  -3.2590668088562958e-06 2.3580182476155219e-04 -1.7435383279468430e-02  -5.8562606829603817e-06 2.1530112055836783e-04 -1.7231637780474734e-02  4.0853338072632975e-05 1.4941598426672554e-04 -1.9224294935187465e-02  -1.2712102658816705e-06 -7.5210456583906883e-07 -1.9014602401352259e-05  -4.3081943417488214e-06 2.7322337146625966e-06 -1.9426190024898676e-05  -2.7358341890361397e-05 -9.1860261845768272e-05 -1.8864761844813529e-02  1.3607092407323012e-04 5.0649435876323752e-05 -1.4045852777197674e-02  -4.4754336894070548e-05 -6.3731006605700379e-05 -1.3127686733819798e-02  -8.8330309186538571e-05 1.8406019005579065e-04 -1.7518021226985314e-02  5.8835725427297312e-06 4.0214033149293916e-05 -1.9425190844095195e-02  1.0870061194997427e-06 3.7082269785160859e-07 -3.7432866750477851e-05  -4.1874355759532084e-07 8.2002704169216931e-07 -3.6145910976950532e-05  -1.4897281611646379e-06 3.2951119232581564e-07 -3.3067146981588800e-05  7.2581569682564213e-05 4.0374464784777116e-05 -1.5993045358049993e-02  2.3854806220698396e-05 2.6518866856681003e-05 -1.9046220688042868e-02  9.1896408609773291e-06 3.5448448518186746e-05 -1.9469010822524866e-02  -1.4523423839551029e-05 3.2714889542628758e-05 -1.6656149950210485e-02  4.3617356919887355e-05 3.5879849238070796e-05 -1.9187842808431665e-02  -4.8889850265616424e-05 -2.2195191168645177e-05 -1.9257744092891507e-02  3.9371499828378539e-06 1.6417779425709303e-05 -1.8417007566100038e-02  -8.6191315913640549e-06 1.1582823319266752e-06 -2.7845881332092666e-05  -1.0651207796166077e-05 3.8172294054796327e-06 -3.1179090268017955e-05  -2.0401386614894081e-04 -6.6069991994833805e-05 -1.4757352273869017e-02  -1.2506644922684413e-05 1.0447567230553804e-04 -1.4114779221060303e-02  1.4203492697700216e-04 -5.5641433711832505e-05 -1.7947247601076119e-02  6.6585068265522914e-05 -2.4176621410848665e-05 -1.8270606581178774e-02  -6.0610408339512767e-05 7.4353763736869616e-05 -1.8930964602893795e-02  3.0856386423295676e-05 -4.6792877548653077e-05 -1.6637315777801292e-02  1.1634569987547894e-04 -1.3489911317989103e-04 -1.6704709097946916e-02  -1.2599350094501052e-05 6.8038168712459992e-05 -1.5876355374376216e-02  5.3994609207853243e-04 -2.2503714939602239e-04 -1.6774271263897991e-02  7.9801053657795943e-05 1.3353695076726574e-05 -1.9351192200254681e-02  1.9890576838121305e-04 9.8945397242406025e-05 -1.9891648206564253e-02  1.1084978596584117e-04 1.8775768135460836e-05 -1.7723346396070830e-02  -1.8757836031992725e-07 1.2873574196424722e-05 -1.9287020930253224e-02  1.2138312523574593e-04 -6.3772838370028265e-05 -1.9117547664820718e-02  5.2555466911564385e-05 -9.7623905208184231e-05 -1.9315003280629954e-02  2.2214983497169875e-05 -2.0052813785704212e-05 -1.9445160589618763e-02  7.0530272211802392e-05 5.2422962123656184e-05 -1.7087082692463524e-02  -4.1040461093320630e-05 4.3909910703679985e-05 -1.7421974723137782e-02  8.1833268394550034e-05 -4.2211047637381947e-05 -1.1431571746353019e-02  3.8150208527247279e-06 -1.9969145314393048e-05 -1.6460816391198754e-02  -1.9714461476178236e-05 -1.1389369914608359e-04 -1.8964077519687750e-02  -1.7690787475811018e-04 -1.9158873005773041e-04 -1.7912637273077223e-02  -2.5376922409441399e-06 1.9760811448152137e-04 -1.7304726289203539e-02  -1.5762656090148982e-04 4.7647842495152777e-05 -1.4851820951811503e-02  -3.2603680379415926e-05 -7.3156584822332911e-05 -1.8338425204607014e-02  -8.7073835571382834e-05 -1.3388894962431883e-04 -1.2979991283886895e-02  -1.3379960009450137e-03 3.3732890297919231e-03 -1.4262718985823302e-02  -2.0499912431934174e-03 2.0023839818285281e-03 -1.3984803036594076e-02  -5.8356808633566585e-04 5.4654828914157527e-04 -1.8580360444992467e-02  -2.7608698890950766e-03 3.5796405694501869e-03 -1.6408209739041734e-02  1.7120575348102829e-04 6.4393707955013907e-04 -1.7274730028523175e-02  1.3691939313253981e-04 5.1121172252322812e-04 -1.5597397711584922e-02  5.9560429988394145e-07 6.1121079366408299e-06 -5.8421876915063026e-07  4.1653184639027359e-06 -2.2723383811672306e-06 7.4760308404362467e-06  -4.3118150498598975e-06 6.8756709144464239e-06 -2.2870521573795538e-06  1.9188041847023284e-04 -7.0669718416561006e-05 -1.5384637645370692e-02  -5.3603522825947417e-04 1.7038785004681341e-04 -1.6730460590053932e-02  -4.1170546135112885e-04 3.6775666161332083e-04 -1.5752699295207694e-02  -9.9399199104067189e-04 8.3564038348189578e-04 -1.5768010705926240e-02  4.3046123363589528e-04 3.4647001296662407e-04 -1.5414571490452531e-02  -2.8874754768831821e-04 9.3467988659083777e-05 -1.7636511622146904e-02  -2.9638055694486848e-04 -1.6910195504445528e-04 -1.6999731809136772e-02  4.4860050513297396e-05 5.5529581340423178e-05 -1.4138484099614948e-02  -1.6571946889949317e-04 2.4368293186773810e-05 -1.5381816197820837e-02  1.2620922964112419e-06 3.4814554272977150e-06 -3.7395385054776696e-05  -8.2195355186306494e-07 3.2140019007669423e-06 -3.7548996535807975e-05  3.1067266230425420e-05 4.5115255914932333e-04 -1.7287370079313035e-02  2.9815140131061409e-06 3.7905695585243219e-06 -8.51779973