<?xml version="1.0"?>
<VTKFile type="UnstructuredGrid"  version="0.1"  >
<UnstructuredGrid>
<Piece  NumberOfPoints="857" NumberOfCells="3763">
<Points>
<DataArray  type="Float64"  NumberOfComponents="3"  format="ascii">-0.0182597916573 0.126128911972 -0.119588643312  -0.0077641364187 0.0512270443141 -0.07050477713349999  -0.0237180162221 0.16240182519 -0.053058128804  -0.107877351344 0.105669431388 -0.0502408407629  -0.0444478429854 0.116080775857 -0.00235075876117  0.0393674038351 0.112876079977 -0.0491501875222  0.0248903874308 0.0489483103156 0.000152088920004  0.0314915925264 0.114928804338 0.0218031276017  -0.0657326281071 0.0685198307037 0.0497140102088  -0.0355357266963 0.164656624198 0.0508319064975  -0.010538729839 -0.0422629192472 -0.208358153701  -0.0239527057856 0.0135364839807 -0.242119863629  -0.0194642152637 -0.0775559768081 -0.263431429863  -0.08492307364939999 -0.0108216870576 -0.280446648598  -0.08293507993220001 -0.0361198186874 -0.159778758883  -0.0240796487778 -0.0824203491211 -0.148982465267  0.0430508553982 -0.121076337993 -0.234084427357  0.0307756774127 0.0324950888753 -0.198437720537  0.00352357281372 -0.00433266581967 -0.144715368748  -0.0456651262939 0.08372022956609999 0.342343091965  -0.116630032659 0.0117083769292 0.386158525944  -0.08223126828669999 0.0577075146139 0.289406776428  -0.0511222109199 0.00205342215486 0.300772219896  -0.0125984866172 0.0267426930368 0.351842552423  0.0303636882454 0.0561947338283 0.391145974398  -0.0524924062192 0.0543583929539 0.40361738205  -0.07944945245979999 0.130002260208 0.441037595272  -0.000730989675503 0.119443200529 0.385622620583  -0.078488714993 0.137875169516 0.332541137934  0.0142801422626 0.110509291291 0.27100610733  0.0224165506661 0.08303219079970001 0.331783413887  -0.0170432701707 0.161798536777 0.30022162199  0.000811119796708 -0.0515509881079 -0.08419398218390001  0.0888616070151 -0.015075173229 -0.0776951387525  -0.0989535748959 -0.0518730916083 -0.08125374466180001  -0.0433920919895 -0.09785594791170001 0.0106235472485  -0.0488061010838 0.0295096840709 -0.0131453983486  -0.25 0.25 0.5  -0.166666666667 0.25 0.5  -0.25 0.195066730511 0.445658150344  -0.19506166517 0.25 0.445542865294  -0.0213422998786 -0.126349791884 -0.045622177422  -0.117952652276 0.0158270020038 -0.16616243124  -0.0531469397247 0.0490713231266 -0.13630309701  0.0358348339796 -0.131537660956 -0.134171053767  0.0583617314696 -0.115307979286 -0.0462360456586  0.010585160926 -0.0606908276677 0.314250290394  0.078067921102 -0.133790805936 0.331458956003  0.0206208750606 -0.104583717883 0.36723652482  0.0300164371729 -0.13569638133 0.270959883928  0.0797956883907 -0.07311873137949999 0.388136893511  0.0291880238801 -0.0850581228733 0.220644980669  0.0788302049041 -0.07555303722620001 0.284453928471  -0.0465739220381 -0.108428947628 0.305151432753  -0.056692365557 -0.0812899768353 0.234353885055  0.10282895714 0.0630551427603 -0.0452189296484  0.178613707423 0.153893724084 -0.0703043565154  0.0750898644328 0.130835875869 -0.116260357201  0.0179002508521 -0.0400723591447 0.396018892527  0.07961820065980001 -0.020668130368 0.232235535979  -0.00726175494492 -0.022667773068 0.242156982422  0.0524490773678 0.0171752162278 0.310696065426  0.0103002395481 0.0813155695796 0.107229083776  0.00225681974553 -0.008687185123560001 0.0457225777209  0.177950121638 0.25 0.0405701099774  0.151375159621 0.202163234353 -0.00268407491967  0.13042794168 0.172564610839 0.0599601529539  0.184557154775 0.16295710206 -0.00737970136106  0.0827306732535 0.011830884032 0.0299163535237  0.106673434377 0.0676268041134 0.0663062110543  0.25 0.25 0  0.25 0.177947182503 0.0435581305687  0.0251978598535 -0.0201241951436 -0.0233656335622  -0.25 -0.25 0.25  -0.175495340629 -0.25 0.295351832328  -0.25 -0.175776260788 0.294629825204  -0.164853364229 -0.189889326692 0.246240898967  0.111295968676 0.25 -0.00354384794953  0.0417815256417 0.25 0.0264120515999  0.0577150444892 0.25 -0.0418173710713  0.035034801811 0.196921139956 -0.0497792549431  -0.115254960954 0.0352221727371 -0.0357825122774  0.0360979661345 0.0743419006467 -0.130612716079  0.08110298216340001 0.0143552683294 -0.135737240314  0.0281950440258 0.110801942647 -0.38559025526  -0.000352636008756 0.154027625918 -0.45018479228  0.0220217909664 0.07910815626379999 -0.445265561342  -0.041934799403 0.09297795593740001 -0.440330862999  -0.115356497467 0.128115877509 0.0303980205208  -0.08144567906859999 0.192924261093 -0.0396481454372  -0.0503155887127 -0.140062868595 0.370642662048  0.0181560348719 -0.191118896008 0.319997102022  -0.09442232549189999 -0.0766885429621 0.347179293633  -0.10306725651 -0.0245223585516 0.261891931295  -0.0371639840305 -0.192689821124 0.258922994137  -0.08778057992460001 -0.193450272083 0.293951839209  -0.116932563484 -0.137108251452 0.278956532478  -0.0434515699744 -0.19969072938 0.340430229902  -0.016621209681 -0.143479332328 0.208528921008  -0.0799133181572 -0.177766740322 0.206858798862  -0.0340202823281 -0.07231882214550001 0.405357718468  -0.153045728803 -0.0703692808747 0.28540495038  -0.0647673308849 -0.069349065423 -0.297796696424  -0.0468406006694 -0.118580199778 -0.331259429455  -0.0636249184608 -0.122360698879 -0.235275790095  -0.137311711907 -0.115820750594 -0.279358655214  -0.25 -0.25 0.333333333333  -0.00222280388698 -0.0275516584516 -0.327156513929  0.0233143884689 -0.124395690858 -0.330935031176  -0.00544846989214 -0.0444226972759 -0.392852008343  -0.07202984392639999 -0.0450558848679 -0.379192590714  -0.128861442208 -0.0482712239027 -0.325591087341  -0.0319190612757 0.25 0.27473160228  0.0259018652141 0.196524605155 0.343851953745  -0.0424101948738 0.196461260319 0.324036180973  -0.08801463991400001 0.193724930286 0.280150324106  -0.051391992718 0.129726842046 0.244459152222  0.0793330296874 0.131078347564 0.273738384247  0.0304427426308 0.197590425611 0.258007407188  0.139736711979 -0.103549621999 0.308288753033  0.117407329381 -0.00031748006586 0.284001767635  0.17845864594 0.0137020656839 0.2717012465  0.133446916938 -0.07468281686309999 0.252671837807  0.193237304688 0.0103836003691 0.32706490159  0.108656100929 -0.016409387812 0.370573759079  0.195593327284 -0.0705924406648 0.374003827572  0.204297035933 -0.0882691517472 0.283604085445  0.15987212956 -0.0232784096152 0.211559042335  0.103109702468 -0.0715631917119 0.185957938433  0.25 -0.177950121638 0.0405701099774  0.25 -0.111295968676 -0.00354384794953  0.168315500021 -0.181550845504 -0.0129796266556  0.203061833978 -0.0839376300573 0.0201103240252  -0.123973377049 0.0421161539853 0.0831994190812  0.10652089864 0.041568480432 0.133020982146  -0.00508088478819 0.00464248098433 0.118765294552  0.0384838804603 0.0542355030775 0.219570666552  0.0556482039392 0.09942726045850001 0.165778696537  0.25 -0.25 0  0.25 -0.17904445884 -0.0421267671166  0.0085972994566 0.139411628246 0.206887423992  -0.0427397117019 0.0734880268574 0.199836358428  0.25 -0.25 0.166666666667  0.177338154858 -0.25 0.209433902167  0.178222204231 -0.25 0.126578397361  0.180748909712 -0.154124230146 0.180074676871  0.118582360446 0.0498475395143 0.233844980597  0.113276541233 0.115120351315 0.208414897323  0.068451166153 0.123325429857 0.09300038218499999  0.08695217221980001 0.18308262527 0.11987875402  0.1366494596 0.0978636816144 0.125807240605  0.0170362386853 0.165571182966 0.116205818951  -0.075325883925 -0.13042730093 -0.120773427188  -0.191016584635 -0.1764793396 -0.0778442546725  -0.102759346366 -0.20253264904 -0.07015967369080001  -0.126150563359 -0.115044787526 -0.0573479756713  -0.138729035854 -0.104583211243 -0.134180948138  -0.147993162274 -0.138949289918 -0.203295826912  -0.180331096053 -0.192031860352 -0.160557568073  -0.194399222732 -0.0846866071224 -0.148938387632  -0.11259970814 -0.078034222126 -0.193649172783  0.0326924659312 -0.122268341482 0.0296003930271  0.0215157996863 -0.180560961366 -0.0757267251611  0.0956164896488 -0.0493310950696 -0.0164182558656  0.112129375339 -0.112067811191 -0.105549775064  0.127802968025 -0.106147237122 -0.0110959038138  -0.0854129120708 -0.015297700651 0.056893799454  -0.0204317308962 -0.0795602425933 0.117458000779  -0.178222204231 0.25 0.126578397361  -0.177947182503 0.25 0.0435581305687  -0.107976816083 0.25 0.0905854563709  -0.157577678561 0.178241759539 0.0969507619739  0.25 -0.25 0.333333333333  0.25 -0.25 0.25  0.175776260788 -0.25 0.294629825204  0.25 -0.175495340629 0.295351832328  0.0932372882962 -0.0430554822087 0.0724518448114  -0.044769000262 -0.00661279587075 0.403999477625  -0.194478780031 -0.0247275307775 0.332954645157  -0.173761367798 -0.0806607827544 0.396263659  -0.137637495995 0.00523930834606 0.315887242556  0.0864742994308 -0.139340251684 0.176064118743  0.105438224971 -0.136641919613 0.253711819649  0.0308670303835 -0.25 -0.136809572586  0.0367561832589 -0.25 -0.219583441074  0.0925811678171 -0.20055809617 -0.19996842742  0.0127155454829 -0.193433105946 -0.225977659225  0.0415658205748 -0.200880005956 0.196522325277  0.0373581312597 -0.119548290968 0.120048768818  -0.0954102815882 -0.25 0.346414074494  -0.101368582479 -0.25 0.251933327382  -0.0374909392175 -0.25 0.286229296012  0.0852289572358 0.109103307128 -0.27055695653  0.07707493752239999 0.127253636718 -0.199824258685  0.128097131848 0.07648140937090001 -0.209757223725  0.154867321253 0.13628205657 -0.212952241302  0.08678253740069999 0.189277544618 -0.274375885725  0.127699971199 0.0803090333939 -0.326344817877  0.0577741526067 0.0601542405784 -0.31936660409  0.0525139421225 0.129102528095 -0.326874881983  0.0251371748745 0.175572559237 -0.261228203773  0.0199144631624 0.0927290171385 -0.265960127115  -0.148952946067 -0.121583275497 -0.374568909407  -0.25 0.177950121638 0.0405701099774  -0.25 0.111295968676 -0.00354384794953  -0.175531774759 0.135734900832 0.0562076568604  -0.178730383515 0.191659659147 -0.00562386959791  -0.0244714934379 -0.108516678214 -0.387223660946  -0.09279609471560001 -0.170035287738 -0.445968538523  -0.0281062982976 -0.0
[...]
<PointData  Vectors="f_68"> 
<DataArray  type="Float64"  Name="f_68"  NumberOfComponents="3" format="ascii">3.6209900206098749e-05 1.5932204058280065e-06 -1.9519585871608378e-02  -1.3271843427725429e-05 2.2581990791255829e-05 -1.9295958662765286e-02  -2.4074888965063630e-05 -5.4515868845864594e-05 -1.8444986997658099e-02  -6.8513628492818552e-05 2.8792052150894929e-05 -1.7185120236498853e-02  -5.1942970090652378e-05 -6.4452357614331101e-06 -1.9514844570819759e-02  6.8101607344279097e-06 9.5932540442150886e-05 -1.7852905319607929e-02  -1.6413978719830054e-05 3.6795884287148710e-05 -1.9498141203723750e-02  2.7305514726562683e-05 3.4845161041636816e-05 -1.8108307849457068e-02  -2.8787647055106558e-05 -2.8265113944699130e-05 -1.9380757379511043e-02  -6.0365222389311131e-05 1.0930143018205648e-04 -1.6140831148608790e-02  -1.2961204848199201e-05 3.4536897062691561e-05 -1.9688659276428325e-02  -8.8844490479834897e-06 6.2563897473775972e-06 -1.9533861012161730e-02  9.9199248716473354e-06 3.3610685302868345e-05 -1.9281226029080063e-02  -6.0144645457687622e-06 4.1140009338591900e-05 -1.9417673727177630e-02  4.7564884757846950e-05 5.3181774273275308e-05 -1.8655268441882179e-02  1.3681923544115779e-05 1.0923481304215321e-05 -1.8988540636755948e-02  4.6134717616240014e-05 -1.4147597966488354e-05 -1.7968390581129482e-02  1.0338797795242724e-05 1.6770200226782031e-05 -1.9451784791028971e-02  1.4645342243881170e-05 -1.5759100781690866e-06 -1.9427336477847151e-02  6.9744450329813982e-05 -8.8473606167559715e-05 -1.9370644801429551e-02  1.0986592994598172e-04 -2.3784011901174732e-05 -1.8699793972893123e-02  3.0303189569092975e-05 2.0320736861437615e-05 -1.8862583521281059e-02  4.3244771294620614e-05 3.3936184705889616e-05 -1.9302795483562445e-02  5.0117624573735997e-06 8.0402985782966263e-05 -1.9575991269470554e-02  -1.3557518920947399e-04 -2.9497535894489939e-05 -1.8758101011935407e-02  1.7667663269679455e-04 -1.4560082461544921e-04 -1.8812534752961532e-02  1.1383081809527078e-04 -1.3688317143318806e-04 -1.8365796890542314e-02  -3.3648796383287888e-05 -4.5790434708909230e-05 -1.6954395536975874e-02  9.1198547633958841e-05 -1.5695125328490358e-04 -1.8641971330300100e-02  -1.8378068294996925e-05 -1.2406295559832057e-05 -1.9240727488793900e-02  -5.8620686633807623e-05 -5.9930291278814955e-05 -1.8677312765021301e-02  -7.1080077511040320e-06 -7.3962035317689455e-05 -1.8736741677973422e-02  -1.1362067635421258e-05 2.3716304806400654e-05 -1.9500675610808947e-02  -4.5909010803417572e-05 1.5992433083314100e-05 -1.8779489360849756e-02  -4.9542197768224324e-05 -7.4891570279284323e-06 -1.8868288021031313e-02  -2.4171089818589079e-05 2.6932431642405296e-05 -1.9068139985487696e-02  -1.4587203927298746e-05 4.5248052580525387e-05 -1.9247997969759713e-02  6.1205778093544072e-05 -1.0818002910863006e-05 8.1697556766024940e-05  1.4538225955497777e-05 1.3875279427645012e-05 1.5716529952088424e-04  -3.2614118723294616e-06 2.1926076417185825e-05 1.1593895833154829e-04  1.0341229278363029e-05 4.0461744442382657e-06 5.8772179097450262e-05  -6.0785804176660777e-05 7.4787556734533678e-05 -1.7909339796208366e-02  5.0322779664373058e-05 6.2713730657920757e-05 -1.9175176410086633e-02  7.3780349304174278e-06 3.3949836059256849e-05 -1.9708683370604812e-02  -3.8860163434838793e-05 -1.7300332661531016e-05 -1.8724579591059227e-02  -5.4530279698767260e-06 -2.1687262483346942e-05 -1.7930378075708259e-02  -7.3658705961888454e-05 1.6865005708766538e-04 -1.9307708943124426e-02  -5.7454705049960223e-04 5.0304848651803351e-04 -1.8173718719301735e-02  -1.2243813690354392e-04 4.6720136764424034e-04 -1.8697446410016316e-02  -1.7180663889519848e-04 1.3304140588761535e-04 -1.7959217875958014e-02  -2.9814583654799276e-04 4.7377487280724092e-04 -1.8498371389067927e-02  -6.9079817639306759e-05 6.9690497854285174e-05 -1.9317125908111472e-02  -1.8949590603759909e-04 2.4541717221468451e-04 -1.8738493597355365e-02  -6.5847298585020920e-05 1.2083909700010651e-04 -1.7398458028918550e-02  -1.5401030317212574e-05 9.6464281312222069e-05 -1.8930910518151892e-02  -5.7451289672894229e-05 4.8586778081092326e-05 -1.8441636740890072e-02  1.8912727390829121e-04 3.0879196344149969e-04 -1.3394688917657932e-02  -4.0227993486829702e-05 3.4606450344634977e-05 -1.7242490284067970e-02  -3.4719030262169240e-05 1.6465799834911553e-04 -1.9178830719848824e-02  -1.1269614469986816e-04 9.3648996392568221e-05 -1.9117421157482162e-02  -3.5703845214930895e-05 6.9218348281528929e-05 -1.9366796304532471e-02  -6.5289415265573831e-05 5.2808533618069287e-05 -1.9175824266252160e-02  4.4875335984258110e-06 2.9713633989310257e-05 -1.9020921003782634e-02  -3.1937956627366558e-05 2.9155714663480729e-05 -1.9701416427675450e-02  -2.1961534970866976e-06 1.1488404912724309e-06 -5.1530487501032081e-06  2.8180413835176860e-04 4.7626886305056264e-05 -1.2664519242916644e-02  -8.9077201424018091e-05 -2.7270210061048901e-04 -1.4603576641755274e-02  -8.2768714747764952e-05 1.0689878118038544e-04 -1.4275892411788421e-02  -3.7693867688781448e-05 7.2310271398642482e-05 -1.9251970283873425e-02  -8.7734211507596604e-05 2.0139407494022339e-05 -1.8713473897723626e-02  -1.7002050232644947e-06 -4.2400050319028088e-07 -5.1983899380492014e-06  1.1180933590510069e-06 1.2896594379575066e-06 -5.6860256418200867e-06  -1.6339700243075131e-05 2.4229867865815733e-05 -1.9780735893582192e-02  -3.3054515461606277e-06 2.1287300370693949e-06 -1.5707796906063830e-05  -4.4803865093103304e-06 5.9269674309255207e-06 -8.0306714276964405e-06  5.8830380152704091e-06 5.7192244198415187e-06 -3.4297834521561068e-06  1.7336921990182451e-05 -2.1576248732954538e-04 -1.1061988060328574e-02  -3.9914268427262751e-07 5.4064964487067368e-07 -4.1906699125951487e-06  -9.5689996233150982e-07 -2.9986830465449509e-07 -5.0015943845944194e-06  -8.8482477662088623e-07 5.2011479380928724e-07 -5.5437370097031177e-06  -8.5096418839767366e-05 6.1684518211040622e-05 -1.4691364878186964e-02  -1.0750265532706762e-04 -2.1475156954632586e-05 -1.8253055299893375e-02  8.4687937182777374e-06 1.1448303630115540e-05 -1.9743796349448527e-02  4.7591822285777709e-05 -4.3057122749563548e-06 -1.8883178999654110e-02  -2.5355132706712092e-05 -7.0708858946887888e-05 -1.8324764494575069e-02  3.9539036125849506e-05 -1.8324980444374119e-04 -1.4782851700561457e-02  3.1762299401089972e-05 -2.0058110048699632e-05 -1.9172786708988275e-02  3.6873619613756310e-05 -1.7373474670876685e-04 -1.8815331615850597e-02  -5.8262385899077191e-05 -1.3478102225487687e-04 -1.8171555128605434e-02  -1.5708017825878453e-04 -2.2637375141194452e-05 -1.3137136399722874e-02  7.5156643773692609e-05 2.5316237897986884e-04 -1.7036189054605466e-02  -2.8822382456266299e-04 2.2567838386657903e-04 -1.6145062130995508e-02  2.3391966853545220e-04 3.4382990889336929e-04 -1.7347169358965270e-02  2.7398424890728979e-05 1.1882642765051337e-05 -1.9009579726544271e-02  -1.4285078521528684e-04 2.0267615628882462e-04 -1.5635679972338973e-02  -1.1089846883541234e-05 -4.4076982752096954e-04 -1.4735500498629808e-02  2.8465020079863149e-05 3.2302854756479514e-05 -1.7327517442993400e-02  1.6363218518876703e-04 3.7398062134801990e-04 -1.4710447984163887e-02  -1.1520548804245876e-05 8.6554498862222160e-05 -1.8755648407628660e-02  2.6844762459306211e-05 2.5474182231848930e-04 -1.5665824143675545e-02  1.7776991859084862e-05 2.2993435174332601e-04 -1.8550082162190722e-02  7.5706694276832310e-05 1.4986520910796543e-04 -1.3837092800070245e-02  5.4874664989554013e-05 3.2733678807354754e-05 -1.8970862367978035e-02  3.8750113377989350e-05 2.9967267745762518e-05 -1.8647840138037129e-02  1.8341176147133422e-05 -2.3342636651386379e-05 -1.7524520847788112e-02  -1.0224672547187366e-05 4.1096071119521663e-05 -1.6520481236229786e-02  -1.2351692677410841e-05 -6.3781048083082849e-06 -1.9063396838654880e-05  3.3034748463346079e-05 2.4198780177928173e-05 -1.9321617957637757e-02  -6.8444897197215606e-07 5.4560727813522076e-05 -1.9455533353955726e-02  1.9531831674836800e-05 8.5501317524742034e-05 -1.9203103512052962e-02  3.8429221593914151e-05 7.3719129029223385e-05 -1.8735394158714259e-02  5.0156682875394305e-05 7.5972638977683884e-06 -1.5788023870579183e-02  1.4742231366837022e-06 9.1112594805223234e-07 2.6516212084425201e-06  -1.3249460893517643e-04 8.0223113114673750e-05 -1.5629633249298350e-02  -1.5796423204485322e-04 2.0849630189948362e-04 -1.2356822913923312e-02  5.3457164287111177e-04 -3.0445350851791538e-04 -1.4473064561844006e-02  7.6215656226345048e-05 -4.5727782546473311e-05 -1.9335878494091061e-02  -1.1909106453982047e-04 -7.0782685087663900e-05 -1.6787187465199995e-02  5.3335401443998869e-05 -2.7117667696148538e-04 -1.7068127332302892e-02  -1.4925995682747167e-04 3.0401912732018829e-04 -1.8150818016836393e-02  -1.0420014205247322e-04 1.6834399096817348e-04 -1.8793893370625332e-02  -2.6397869377577210e-05 7.1825023320842339e-06 -1.3799126832561332e-02  -1.8495055724155064e-04 1.8710383521266361e-04 -1.5818272176646348e-02  -3.4136704315688369e-04 2.6511731618774254e-04 -1.4649761649529403e-02  -1.5216289862364775e-04 3.4324752584290197e-04 -1.8221018402757892e-02  8.7773752959017525e-05 1.0094581771282751e-03 -1.4168960919633645e-02  -7.4519379985324059e-05 5.0943448257153114e-04 -1.6932111865089850e-02  -2.2443787737176838e-04 1.4046761264661331e-04 -1.7789474364734850e-02  -1.4509559197090798e-04 6.8232670234856228e-05 -1.6922020620957524e-02  2.6199132438211781e-06 1.3623827028272590e-06 -1.2680310547179705e-05  -9.4404063606486431e-07 2.5847590675344480e-07 -9.7365130541510920e-06  -5.0120597376983951e-04 3.2429220901952701e-04 -1.5087277744685122e-02  2.5129608917008633e-04 -1.8484568488860280e-04 -1.2497680091726101e-02  8.5434328845299633e-05 5.1340392921543975e-05 -1.8573487294307734e-02  -1.2211439189614200e-05 4.7653340648043823e-05 -1.8314010104288962e-02  -9.1195125798760799e-06 1.8973478452292277e-05 -1.9408261711090381e-02  -3.3962371681157881e-05 3.1563029776726389e-05 -1.9366746864892190e-02  3.1280860752013589e-05 -3.7097106147208882e-05 -1.8956009686479924e-02  -3.4205850065120856e-06 2.2284459898060370e-06 -9.4114739192697270e-06  -1.9637515852434304e-07 1.4141658030125311e-06 -1.0625691795181384e-05  -5.8029011725276406e-05 -2.3086445529741693e-05 -1.6704162078179062e-02  3.0378624001455585e-05 3.7855726668268462e-05 -1.8850564444064050e-02  -1.1039936518180726e-06 4.2327578611709269e-06 -2.5118791854557923e-05  -1.1950807385655327e-05 5.6075885223563196e-06 -3.1858776109094071e-05  -5.9893187405466753e-06 2.9700299264503927e-06 -1.9134114374773846e-05  -1.3145499385009568e-04 1.7777670458509677e-04 -1.5426235797633565e-02  -6.8709696947410708e-05 3.9590193060630869e-05 -1.8257434211724349e-02  -2.3300434764176846e-05 -5.1839198861928108e-05 -1.6627574356311278e-02  -4.9144482092884407e-05 3.9194284444432009e-05 -1.8744702942673976e-02  -2.9608349157595804e-06 -1.1445640990885822e-04 -1.5845295049753072e-02  -5.8557424690424323e-05 -1.5306420592084443e-04 -1.4666534407008292e-02  1.8558427264090327e-04 5.3389124233713279e-06 -1.4720014860982077e-02  -1.3012709660753353e-05 7.0918431909855538e-05 -1.7527926955863964e-02  -3.3693332570914036e-04 -2.9264976400135298e-04 -1.4828987926989229e-02  1.3022028059027371e-04 -1.7596309147395724e-04 -1.2436379807988673e-02  -9.3560232195900547e-05 -8.1053935755690380e-05 -1.6642890588201099e-02  1.4871044653302932e-05 1.1484095485286578e-04 -1.5131408376432773e-02  9.9034624450553536e-05 -2.7383439361816855e-05 -1.6210044694116472e-02  7.4670394654510408e-05 8.5967660658783626e-06 -1.2827153230038701e-02  6.8273419049437852e-05 2.9794647838032890e-05 -1.5830867889284367e-02  7.6727400204700528e-05 -8.3766685243360251e-06 -1.8054862054582618e-02  -4.9391342027791338e-05 -1.4287722524024887e-05 -1.8485937184572809e-02  -8.3051843137533113e-05 8.5205235017878160e-05 -1.2332687182456980e-02  4.0524383657601653e-05 -9.9876590806137456e-06 -1.8220427830060632e-02  3.7906930387569441e-06 -4.3550607655124882e-05 -1.7202367023046897e-02  -2.0744504639035363e-05 4.3148658881132157e-05 -1.7873732480371891e-02  3.1721450273993665e-05 -1.9835458979534488e-06 -1.9220192048397821e-02  -3.6973552797831653e-05 4.3575298122372609e-05 -1.9525822367706731e-02  4.3261352263476056e-08 8.5090241409723710e-07 -5.1551314463582762e-06  2.4368548905600198e-07 -4.1440353936468647e-07 -5.2704582654552390e-06  1.7052939716618735e-06 -2.3961484363584878e-06 -3.9760397554599144e-06  1.9488886707055952e-05 5.6745643405009419e-05 -1.3596389218743857e-02  -4.7098331438002256e-05 3.6313382906053601e-05 -1.2731743648472838e-04  -1.8372302435801408e-05 1.9550607139154528e-05 -5.4179574098686908e-05  -4.2778776053195606e-05 2.0581259718428772e-05 -6.0632267805249803e-05  -1.7731509304910549e-05 4.9638263471227509e-05 -7.4042305403416769e-05  -6.7449674266183967e-05 6.6055966987039910e-05 -1.8616954187791961e-02  1.0419797460517357e-04 5.1553825842988713e-05 -1.8937276139281617e-02  8.1682588527509531e-05 -6.6175451952042084e-05 -1.2101552616351525e-02  -8.3378033317488444e-06 4.6970178415040232e-04 -1.5391010607029279e-02  2.6506275124993551e-04 1.7625586760988241e-05 -1.6858982165137100e-02  -2.5228140041154806e-05 1.4864059871301416e-04 -1.5500858765564797e-02  -2.1917899858284472e-04 9.1779650391399947e-05 -1.7958610266682724e-02  -6.6177764117368226e-07 -2.6128797720972276e-07 -7.1109001406904954e-06  1.1329174980356486e-06 4.7459270693426100e-06 -6.5764422827392786e-06  3.8959793441187762e-04 -3.5849524942463461e-04 -1.4044205196978236e-02  -1.4154756376405311e-04 1.3084414347026743e-04 -9.3429292386006876e-03  -9.7520451721589633e-05 -7.4524719674822822e-07 -1.6996627484134635e-02  -4.7413050758540154e-05 1.3999677266062958e-04 -1.8042806770240730e-02  9.5276626870273152e-06 5.0258142634317403e-06 1.8243627304124396e-06  -3.9451943449117054e-06 1.4311378458925602e-06 -5.0529559371721309e-06  -1.4373420963250328e-05 7.4159708911488387e-07 -4.7419729380144550e-06  6.9019941683794538e-05 -8.3101959951523588e-06 -1.8402636767998956e-02  -7.4835370340373321e-08 -6.0981416039073571e-05 -1.8440120222502528e-02  4.2853871161502397e-05 7.1782729860196338e-06 -1.7751629124193365e-02  1.2880955553345999e-04 7.7766909859698462e-05 -1.5960758357085835e-02  3.4173406034395437e-05 -2.3943764660523689e-05 -1.5414091790649266e-02  2.8399755881450250e-06 1.0980081520605179e-05 -1.9190567436728090e-02  9.9227723193015981e-06 -1.3914818739226880e-05 -1.9207515121250587e-02  -3.4244248188072957e-05 -3.7010495652994986e-05 -1.6577980258462591e-02  -8.8249831559544586e-05 -5.2094429889358892e-05 -1.7583385774155788e-02  -6.1667395115799368e-07 1.6398762344162089e-05 -1.9415000883637918e-02  7.6604263515016638e-05 -1.3650504889233328e-04 -1.6792278722171244e-02  2.1662793012814270e-07 -1.2502214446455581e-06 -5.0644376806440623e-06  -3.3278861549423634e-06 -4.0362619512081822e-07 -5.0775377022880385e-06  3.2352385767665830e-04 -3.8318473133971238e-04 -1.3665487084236179e-02  -3.0429444926432972e-04 -1.0355105221624530e-05 -1.3555258544287815e-02  2.2997541871609125e-06 2.3181425445664141e-04 -1.7447410780547186e-02  -1.6195562010881346e-06 1.9812617050958141e-04 -1.7058512773560301e-02  4.1234226554306360e-05 1.4030480230884136e-04 -1.9124154456476642e-02  -8.8199026238351060e-07 -1.4204440698380862e-06 -6.5056979408661454e-06  -1.7770565621099371e-06 3.6683441194181659e-07 -4.0177593153207246e-06  -2.4199653750794724e-06 -1.2709683947414663e-04 -1.8846604746337436e-02  1.2763175451223577e-04 1.5813033170410438e-05 -1.4016483725283775e-02  -3.2351348249648644e-05 -8.2210216947002830e-05 -1.2906697983232532e-02  -6.9147282396416520e-05 1.4564664868466496e-04 -1.7254129539392607e-02  1.6457368018126134e-05 2.0283224915417571e-05 -1.9373676356540196e-02  1.3576594629526849e-06 2.0090825453014994e-07 -1.1250860330459586e-05  5.0071832931282404e-08 6.4111983409141894e-07 -9.4622616854743798e-06  -3.7123899902574398e-07 -8.7609061730149465e-08 -6.6472927431935397e-06  7.3462955670443411e-05 1.9774676795859896e-05 -1.5768438642397933e-02  2.7097476021861670e-05 1.7680155305901674e-05 -1.9062872977148797e-02  1.4001339523633414e-05 2.5512016372290214e-05 -1.9408347131119736e-02  -7.4118193902367908e-06 1.1557507398610078e-05 -1.6693324985222815e-02  4.6949992590601062e-05 1.8227132028245521e-05 -1.9095693391222524e-02  -3.5018603937449275e-05 -2.6730432839851844e-05 -1.9211924383539469e-02  9.5880240683298829e-06 6.3326844927236546e-06 -1.8440678081512691e-02  -4.2871238648673007e-07 -1.2249622218661606e-06 -7.1545639157766442e-06  -2.1503431591695370e-06 8.5693485880684836e-07 -6.7007243459066969e-06  -1.3906714195452771e-04 -7.2716083524797769e-05 -1.4386133596759826e-02  2.0233331072706421e-05 6.8106635079748638e-05 -1.3992254116963840e-02  1.4104643983346178e-04 -5.6957291571399142e-05 -1.8146501268587970e-02  6.4769095898242190e-05 -2.7461197803564435e-05 -1.8286374635840482e-02  -2.2696504016667865e-06 -3.2111115900501236e-06 -1.8992449355250150e-02  4.8839709899288487e-05 -7.3457833913499830e-05 -1.6836558895248908e-02  7.8108287485404072e-05 -1.2331055175482901e-04 -1.6679465224728938e-02  -1.1985993881540518e-05 5.1386615521706100e-05 -1.6301327785472448e-02  3.4152158271504994e-04 -1.5749858039878253e-04 -1.7076723344005652e-02  7.5838419017009134e-05 1.0897774184658520e-05 -1.9313196605705352e-02  1.8430017537434513e-04 9.2048847253296936e-05 -1.9741845295546626e-02  1.0771195981689271e-04 1.6977800488786046e-05 -1.7709829379699074e-02  1.6472076339195080e-06 7.2188567525524877e-06 -1.9271625993270772e-02  1.1789862851068526e-04 -5.8964567048883482e-05 -1.9001964843205984e-02  5.0625667840960041e-05 -8.9100929596165721e-05 -1.9242300314202255e-02  2.2886393828366549e-05 -2.4879066850455280e-05 -1.9386122523073326e-02  6.6539606096470072e-05 4.0804497591347701e-05 -1.7254121004715101e-02  -3.8074908271209574e-05 3.4841529286340587e-05 -1.7419097677663257e-02  8.1088211256412164e-05 -4.9275118429963717e-05 -1.1260934214770077e-02  -1.3849469930871711e-06 -3.0790583398530462e-05 -1.6503861968522174e-02  -2.5604020588740390e-05 -1.0301396254344877e-04 -1.8904901612248233e-02  -1.5616138526045576e-04 -1.6665266254176168e-04 -1.7661307308269078e-02  3.0173682429480724e-06 1.8327819670449876e-04 -1.6779309651744088e-02  -1.4300906929003154e-04 2.9458270723383356e-05 -1.5125530349204793e-02  -4.7363520478415772e-05 -7.5724810880993477e-05 -1.8078169074911256e-02  -7.9523314104070842e-05 -1.0242123404819848e-04 -1.3211166576421560e-02  -3.8294397116058420e-04 1.3159762733227986e-03 -1.3618366904512577e-02  -8.1449235663232609e-04 8.9242806792350798e-04 -1.2968276311318824e-02  -8.5636357234268376e-05 -7.2060679866763592e-05 -1.7254516952256008e-02  -9.4670309631066920e-04 1.2620568663672964e-03 -1.6598144953753922e-02  1.4985888266548527e-04 3.5074242969131717e-04 -1.7878694148251242e-02  1.4478733247265933e-04 3.0092469544491411e-04 -1.6433285762728334e-02  2.1146767270035603e-06 2.2220791557563061e-06 -5.3680009985773407e-06  4.1734078908588831e-06 -5.6179444684547999e-06 -4.7014012827823584e-06  -1.1242463402478642e-06 4.6554490977912762e-06 -3.9868332445150930e-06  1.5030423283001506e-04 -8.1663311301765040e-05 -1.5179265041113695e-02  -1.6822102258353725e-04 3.6569524845772063e-05 -1.7780520787538570e-02  -1.3560199416452263e-04 1.3594395884507498e-04 -1.6396948668455324e-02  -2.4133346631150315e-04 3.5833077988161146e-04 -1.5751517246173314e-02  2.7846541148452081e-04 3.3257595265621958e-04 -1.4972920783155846e-02  -1.5299977689544169e-04 -8.4414718116676199e-05 -1.7976469959778113e-02  -1.7833372906868758e-04 -2.0720261508295215e-04 -1.7276851692635712e-02  9.3525603613127983e-05 -9.2299462093483234e-05 -1.4335275548435876e-02  -1.0718352284803371e-04 -8.5947986589189477e-05 -1.5230306663716093e-02  1.5399268900768335e-06 3.1112622479898009e-06 -1.1010209635585996e-05  -4.8122331016098423e-07 2.8838712849233630e-06 -1.0576443481529991e-05  2.7878208846808980e-05 4.1918415600559409e-04 -1.6921807531476839e-02  1.5476396160220450e-06 1.7962715502220014e-06 -1.3