<?xml version="1.0"?>
<VTKFile type="UnstructuredGrid"  version="0.1"  >
<UnstructuredGrid>
<Piece  NumberOfPoints="857" NumberOfCells="3763">
<Points>
<DataArray  type="Float64"  NumberOfComponents="3"  format="ascii">-0.0182597916573 0.126128911972 -0.119588643312  -0.0077641364187 0.0512270443141 -0.07050477713349999  -0.0237180162221 0.16240182519 -0.053058128804  -0.107877351344 0.105669431388 -0.0502408407629  -0.0444478429854 0.116080775857 -0.00235075876117  0.0393674038351 0.112876079977 -0.0491501875222  0.0248903874308 0.0489483103156 0.000152088920004  0.0314915925264 0.114928804338 0.0218031276017  -0.0657326281071 0.0685198307037 0.0497140102088  -0.0355357266963 0.164656624198 0.0508319064975  -0.010538729839 -0.0422629192472 -0.208358153701  -0.0239527057856 0.0135364839807 -0.242119863629  -0.0194642152637 -0.0775559768081 -0.263431429863  -0.08492307364939999 -0.0108216870576 -0.280446648598  -0.08293507993220001 -0.0361198186874 -0.159778758883  -0.0240796487778 -0.0824203491211 -0.148982465267  0.0430508553982 -0.121076337993 -0.234084427357  0.0307756774127 0.0324950888753 -0.198437720537  0.00352357281372 -0.00433266581967 -0.144715368748  -0.0456651262939 0.08372022956609999 0.342343091965  -0.116630032659 0.0117083769292 0.386158525944  -0.08223126828669999 0.0577075146139 0.289406776428  -0.0511222109199 0.00205342215486 0.300772219896  -0.0125984866172 0.0267426930368 0.351842552423  0.0303636882454 0.0561947338283 0.391145974398  -0.0524924062192 0.0543583929539 0.40361738205  -0.07944945245979999 0.130002260208 0.441037595272  -0.000730989675503 0.119443200529 0.385622620583  -0.078488714993 0.137875169516 0.332541137934  0.0142801422626 0.110509291291 0.27100610733  0.0224165506661 0.08303219079970001 0.331783413887  -0.0170432701707 0.161798536777 0.30022162199  0.000811119796708 -0.0515509881079 -0.08419398218390001  0.0888616070151 -0.015075173229 -0.0776951387525  -0.0989535748959 -0.0518730916083 -0.08125374466180001  -0.0433920919895 -0.09785594791170001 0.0106235472485  -0.0488061010838 0.0295096840709 -0.0131453983486  -0.25 0.25 0.5  -0.166666666667 0.25 0.5  -0.25 0.195066730511 0.445658150344  -0.19506166517 0.25 0.445542865294  -0.0213422998786 -0.126349791884 -0.045622177422  -0.117952652276 0.0158270020038 -0.16616243124  -0.0531469397247 0.0490713231266 -0.13630309701  0.0358348339796 -0.131537660956 -0.134171053767  0.0583617314696 -0.115307979286 -0.0462360456586  0.010585160926 -0.0606908276677 0.314250290394  0.078067921102 -0.133790805936 0.331458956003  0.0206208750606 -0.104583717883 0.36723652482  0.0300164371729 -0.13569638133 0.270959883928  0.0797956883907 -0.07311873137949999 0.388136893511  0.0291880238801 -0.0850581228733 0.220644980669  0.0788302049041 -0.07555303722620001 0.284453928471  -0.0465739220381 -0.108428947628 0.305151432753  -0.056692365557 -0.0812899768353 0.234353885055  0.10282895714 0.0630551427603 -0.0452189296484  0.178613707423 0.153893724084 -0.0703043565154  0.0750898644328 0.130835875869 -0.116260357201  0.0179002508521 -0.0400723591447 0.396018892527  0.07961820065980001 -0.020668130368 0.232235535979  -0.00726175494492 -0.022667773068 0.242156982422  0.0524490773678 0.0171752162278 0.310696065426  0.0103002395481 0.0813155695796 0.107229083776  0.00225681974553 -0.008687185123560001 0.0457225777209  0.177950121638 0.25 0.0405701099774  0.151375159621 0.202163234353 -0.00268407491967  0.13042794168 0.172564610839 0.0599601529539  0.184557154775 0.16295710206 -0.00737970136106  0.0827306732535 0.011830884032 0.0299163535237  0.106673434377 0.0676268041134 0.0663062110543  0.25 0.25 0  0.25 0.177947182503 0.0435581305687  0.0251978598535 -0.0201241951436 -0.0233656335622  -0.25 -0.25 0.25  -0.175495340629 -0.25 0.295351832328  -0.25 -0.175776260788 0.294629825204  -0.164853364229 -0.189889326692 0.246240898967  0.111295968676 0.25 -0.00354384794953  0.0417815256417 0.25 0.0264120515999  0.0577150444892 0.25 -0.0418173710713  0.035034801811 0.196921139956 -0.0497792549431  -0.115254960954 0.0352221727371 -0.0357825122774  0.0360979661345 0.0743419006467 -0.130612716079  0.08110298216340001 0.0143552683294 -0.135737240314  0.0281950440258 0.110801942647 -0.38559025526  -0.000352636008756 0.154027625918 -0.45018479228  0.0220217909664 0.07910815626379999 -0.445265561342  -0.041934799403 0.09297795593740001 -0.440330862999  -0.115356497467 0.128115877509 0.0303980205208  -0.08144567906859999 0.192924261093 -0.0396481454372  -0.0503155887127 -0.140062868595 0.370642662048  0.0181560348719 -0.191118896008 0.319997102022  -0.09442232549189999 -0.0766885429621 0.347179293633  -0.10306725651 -0.0245223585516 0.261891931295  -0.0371639840305 -0.192689821124 0.258922994137  -0.08778057992460001 -0.193450272083 0.293951839209  -0.116932563484 -0.137108251452 0.278956532478  -0.0434515699744 -0.19969072938 0.340430229902  -0.016621209681 -0.143479332328 0.208528921008  -0.0799133181572 -0.177766740322 0.206858798862  -0.0340202823281 -0.07231882214550001 0.405357718468  -0.153045728803 -0.0703692808747 0.28540495038  -0.0647673308849 -0.069349065423 -0.297796696424  -0.0468406006694 -0.118580199778 -0.331259429455  -0.0636249184608 -0.122360698879 -0.235275790095  -0.137311711907 -0.115820750594 -0.279358655214  -0.25 -0.25 0.333333333333  -0.00222280388698 -0.0275516584516 -0.327156513929  0.0233143884689 -0.124395690858 -0.330935031176  -0.00544846989214 -0.0444226972759 -0.392852008343  -0.07202984392639999 -0.0450558848679 -0.379192590714  -0.128861442208 -0.0482712239027 -0.325591087341  -0.0319190612757 0.25 0.27473160228  0.0259018652141 0.196524605155 0.343851953745  -0.0424101948738 0.196461260319 0.324036180973  -0.08801463991400001 0.193724930286 0.280150324106  -0.051391992718 0.129726842046 0.244459152222  0.0793330296874 0.131078347564 0.273738384247  0.0304427426308 0.197590425611 0.258007407188  0.139736711979 -0.103549621999 0.308288753033  0.117407329381 -0.00031748006586 0.284001767635  0.17845864594 0.0137020656839 0.2717012465  0.133446916938 -0.07468281686309999 0.252671837807  0.193237304688 0.0103836003691 0.32706490159  0.108656100929 -0.016409387812 0.370573759079  0.195593327284 -0.0705924406648 0.374003827572  0.204297035933 -0.0882691517472 0.283604085445  0.15987212956 -0.0232784096152 0.211559042335  0.103109702468 -0.0715631917119 0.185957938433  0.25 -0.177950121638 0.0405701099774  0.25 -0.111295968676 -0.00354384794953  0.168315500021 -0.181550845504 -0.0129796266556  0.203061833978 -0.0839376300573 0.0201103240252  -0.123973377049 0.0421161539853 0.0831994190812  0.10652089864 0.041568480432 0.133020982146  -0.00508088478819 0.00464248098433 0.118765294552  0.0384838804603 0.0542355030775 0.219570666552  0.0556482039392 0.09942726045850001 0.165778696537  0.25 -0.25 0  0.25 -0.17904445884 -0.0421267671166  0.0085972994566 0.139411628246 0.206887423992  -0.0427397117019 0.0734880268574 0.199836358428  0.25 -0.25 0.166666666667  0.177338154858 -0.25 0.209433902167  0.178222204231 -0.25 0.126578397361  0.180748909712 -0.154124230146 0.180074676871  0.118582360446 0.0498475395143 0.233844980597  0.113276541233 0.115120351315 0.208414897323  0.068451166153 0.123325429857 0.09300038218499999  0.08695217221980001 0.18308262527 0.11987875402  0.1366494596 0.0978636816144 0.125807240605  0.0170362386853 0.165571182966 0.116205818951  -0.075325883925 -0.13042730093 -0.120773427188  -0.191016584635 -0.1764793396 -0.0778442546725  -0.102759346366 -0.20253264904 -0.07015967369080001  -0.126150563359 -0.115044787526 -0.0573479756713  -0.138729035854 -0.104583211243 -0.134180948138  -0.147993162274 -0.138949289918 -0.203295826912  -0.180331096053 -0.192031860352 -0.160557568073  -0.194399222732 -0.0846866071224 -0.148938387632  -0.11259970814 -0.078034222126 -0.193649172783  0.0326924659312 -0.122268341482 0.0296003930271  0.0215157996863 -0.180560961366 -0.0757267251611  0.0956164896488 -0.0493310950696 -0.0164182558656  0.112129375339 -0.112067811191 -0.105549775064  0.127802968025 -0.106147237122 -0.0110959038138  -0.0854129120708 -0.015297700651 0.056893799454  -0.0204317308962 -0.0795602425933 0.117458000779  -0.178222204231 0.25 0.126578397361  -0.177947182503 0.25 0.0435581305687  -0.107976816083 0.25 0.0905854563709  -0.157577678561 0.178241759539 0.0969507619739  0.25 -0.25 0.333333333333  0.25 -0.25 0.25  0.175776260788 -0.25 0.294629825204  0.25 -0.175495340629 0.295351832328  0.0932372882962 -0.0430554822087 0.0724518448114  -0.044769000262 -0.00661279587075 0.403999477625  -0.194478780031 -0.0247275307775 0.332954645157  -0.173761367798 -0.0806607827544 0.396263659  -0.137637495995 0.00523930834606 0.315887242556  0.0864742994308 -0.139340251684 0.176064118743  0.105438224971 -0.136641919613 0.253711819649  0.0308670303835 -0.25 -0.136809572586  0.0367561832589 -0.25 -0.219583441074  0.0925811678171 -0.20055809617 -0.19996842742  0.0127155454829 -0.193433105946 -0.225977659225  0.0415658205748 -0.200880005956 0.196522325277  0.0373581312597 -0.119548290968 0.120048768818  -0.0954102815882 -0.25 0.346414074494  -0.101368582479 -0.25 0.251933327382  -0.0374909392175 -0.25 0.286229296012  0.0852289572358 0.109103307128 -0.27055695653  0.07707493752239999 0.127253636718 -0.199824258685  0.128097131848 0.07648140937090001 -0.209757223725  0.154867321253 0.13628205657 -0.212952241302  0.08678253740069999 0.189277544618 -0.274375885725  0.127699971199 0.0803090333939 -0.326344817877  0.0577741526067 0.0601542405784 -0.31936660409  0.0525139421225 0.129102528095 -0.326874881983  0.0251371748745 0.175572559237 -0.261228203773  0.0199144631624 0.0927290171385 -0.265960127115  -0.148952946067 -0.121583275497 -0.374568909407  -0.25 0.177950121638 0.0405701099774  -0.25 0.111295968676 -0.00354384794953  -0.175531774759 0.135734900832 0.0562076568604  -0.178730383515 0.191659659147 -0.00562386959791  -0.0244714934379 -0.108516678214 -0.387223660946  -0.09279609471560001 -0.170035287738 -0.445968538523  -0.0281062982976 -0.0
[...]
<PointData  Vectors="f_104"> 
<DataArray  type="Float64"  Name="f_104"  NumberOfComponents="3" format="ascii">4.2478325261267588e-05 1.0296962136133164e-03 1.4927241698597249e-01  6.7278887848832528e-04 6.4829230745023776e-04 1.8092622407426998e-01  -1.2374510758840103e-04 7.4226824954770219e-04 1.2151886480917046e-01  -9.5378800485366896e-05 -2.8577288644107527e-04 1.4208734126321609e-01  -1.2828420700836730e-03 3.4954156153830292e-04 1.5532415831788335e-01  -1.1577526325342953e-03 -1.5476992937347833e-03 1.5731606306540269e-01  4.8761535195445224e-04 -1.4862770712346121e-04 1.8059314479002006e-01  -8.3988543208326171e-04 3.9624032110665057e-05 1.5577673952729754e-01  -1.3186495537435257e-03 1.2157355178764568e-04 1.6998402459148451e-01  2.8235769910125538e-05 1.5758836136831806e-03 1.2062154106556945e-01  -1.0187593274570278e-03 2.8863695383502667e-05 1.8185657715342338e-01  3.7849442071250338e-06 1.1846261680506666e-04 1.8370441193239886e-01  1.0237766927746804e-04 3.0791874544456097e-04 1.7060236031354720e-01  1.1276236517895365e-04 -6.3794476073595794e-05 1.6697358159044251e-01  4.7909744613052792e-04 9.1972148148250184e-04 1.6834220715857148e-01  -2.6341691462452975e-04 -4.3346492770820897e-04 1.7111902826255329e-01  -8.0733584510557280e-05 4.2228892093641750e-04 1.4564189035179215e-01  1.0894492728560450e-04 -9.2291847347773836e-04 1.8186881720698930e-01  -3.2529857776796272e-04 -3.5260591014364039e-04 1.8713067497534722e-01  -6.8184326325773249e-03 9.8357781448786888e-03 1.5474787599276182e-01  -1.6667581563779517e-02 1.6545967218585768e-03 1.4280422469066711e-01  -6.1039503791968505e-03 3.7326997298022515e-03 1.6262493612297638e-01  -7.3450424627125319e-03 -4.1454163162267310e-04 1.7279258707117778e-01  -4.2037808491061264e-03 3.1275060441282553e-03 1.6281604454140142e-01  5.1845509635864723e-03 9.3871530400881399e-03 1.4677410553779927e-01  -9.5461755661490934e-03 9.3113208308334451e-03 1.4316908843813625e-01  -1.4301443161692129e-02 2.3908379381355635e-02 1.2637022147904670e-01  -8.3749996405671566e-04 1.5699555100007059e-02 1.3744348916463486e-01  -5.4795788599683835e-03 8.0369469496459831e-03 1.2879922668577140e-01  2.1991591136838870e-03 6.1895683182783172e-03 1.5176307189418214e-01  5.6879838965159498e-04 7.7057505095709054e-03 1.5679600592238141e-01  -1.0275872953271347e-03 6.0958731178401586e-03 1.2283943549504790e-01  -6.4677249419173310e-04 -2.1937410875508997e-04 1.8110919830650274e-01  -2.9414545347698359e-05 9.6887312805658539e-04 1.6747068352840144e-01  -8.6071662983334312e-05 -1.3702556066741526e-04 1.5842621701050999e-01  1.4759115596359349e-03 -1.3720476472129533e-03 1.6387115265265331e-01  -1.1261542988300552e-03 2.0888278447307495e-03 1.8141842613505788e-01  -1.0677704427485252e-02 1.0648227132538149e-02 1.3399162301160772e-01  -8.7369094416010189e-03 5.8832095409629475e-03 1.2645926134371457e-01  -9.8915977669315029e-03 1.3278147429604509e-02 2.9903102562911670e-02  -8.1152910052815566e-03 9.5698496189094255e-03 3.0365616505815287e-02  1.3510161916177829e-03 -5.8328609131462180e-04 1.5160386355608282e-01  9.5079590078616641e-04 -1.1638968320319461e-03 1.5034223749908196e-01  -9.9117804003210751e-04 -3.2606322819249449e-04 1.7669611586792403e-01  -3.0849849837483612e-04 -5.6464126502486734e-04 1.4331033791889453e-01  -1.0807740904722646e-04 -2.4133338237602542e-03 1.5475185076211881e-01  2.5438214169279409e-03 -8.9905399176140686e-03 1.6545623106908916e-01  7.9578614163345173e-03 -9.0701273988424893e-03 1.2837839046531691e-01  1.5122596803911481e-03 -1.4535791382953250e-02 1.4345692229816989e-01  2.3581593494385600e-03 -8.3191057307681320e-03 1.4385398586213929e-01  1.5768373988540637e-02 -1.2104636056871183e-02 1.3788450941880331e-01  8.4531867065682127e-04 -4.4488791530430880e-03 1.7274693033624158e-01  6.8421083557235638e-03 -7.5061601623924229e-03 1.5669599013949873e-01  -3.0995691175549830e-03 -8.9671513045022442e-03 1.5439595124173072e-01  -1.6762746703472731e-03 -5.0246214696354477e-03 1.6624587479705846e-01  3.8420927381256550e-04 -6.1976963377669361e-04 1.5359235902432103e-01  1.1697102601122406e-03 3.5635975373808214e-04 8.1307394748310211e-02  -1.1210988220917305e-03 -1.1241381986054806e-03 1.3677199626784980e-01  1.8778334331733383e-03 -1.0086584118484761e-02 1.5042845986348161e-01  4.5566186203817981e-03 -3.5915367933178938e-03 1.7408548349448413e-01  -1.1555252119605332e-03 -4.6757986895656599e-03 1.9310288203104520e-01  6.3930002366820856e-03 -3.4697933871851645e-05 1.7195295704180574e-01  -9.4744660014932437e-05 -1.1232093815837919e-03 1.7649946467044797e-01  8.2708416524765590e-04 5.2875487783498893e-04 1.8861312019785462e-01  -5.3425227066278042e-04 5.8959767439949638e-05 1.7826057947721397e-02  2.6626899435214547e-03 1.8785369366494777e-03 6.1867261791974944e-02  -5.4848578971314647e-04 1.4594543602340893e-03 9.1615063607590724e-02  -4.6207345465083431e-04 4.6074521583045559e-04 6.8674581667517415e-02  4.5754608955700631e-04 -1.2107686295825522e-03 1.7075050259742616e-01  1.3484578383288605e-04 -2.0560774360495770e-03 1.5766175987997527e-01  -5.6421152891590772e-04 4.4557953047407202e-05 1.8085652098327996e-02  -6.3642904733396117e-04 2.1252028718434944e-04 1.7801354126536287e-02  3.1500072774660782e-05 -1.3429177011155962e-03 1.8179765872022122e-01  -1.1838221925310293e-03 3.9947435460606226e-04 1.9552765342479031e-02  -2.8112702033050749e-03 3.8772205608392799e-04 2.2028627714052847e-02  -1.1459520135449325e-03 -1.1514154342048331e-03 2.1645367471072919e-02  -2.6248299908554879e-03 -3.4745914137547518e-03 7.2828362928946205e-02  -2.8629439737733241e-04 -8.4780041243387433e-05 1.8316090498175910e-02  -1.3818356009976342e-04 -5.0538624104456276e-05 1.7957724728804608e-02  -1.8461367032791780e-04 -4.8733827338513151e-05 1.8653086354624756e-02  -2.9805089791510005e-03 1.8424027547056881e-04 8.2749894101379631e-02  2.1171843572594483e-05 1.1693206642620695e-04 1.5174488061973554e-01  -2.7696475714353427e-04 -6.5479200762142624e-04 1.7307210652538058e-01  -1.2630785616546962e-03 -2.9507989461661924e-04 1.6894771583237028e-01  -1.1871620149236444e-04 -4.6268849359104971e-04 1.5477091481163555e-01  6.0789512699997776e-05 -6.4301131513284384e-04 1.2779028969593509e-01  -2.0641664391463823e-05 -8.1047332437126360e-04 1.7060929510324535e-01  5.8624575337038251e-05 -6.8867540017897950e-04 1.6162853180824030e-01  -5.9180609478710314e-04 2.5141150105461457e-04 1.2638012945100457e-01  7.4558279471480791e-04 1.6839446546786279e-03 8.6309949338497990e-02  -5.8719398123483644e-03 -1.3649438904863496e-02 1.3528862719386653e-01  2.1691186900295763e-03 -8.8965033902737214e-03 9.7264532211024948e-02  -9.6924391509276148e-03 -1.0747511308938060e-02 1.4449538555268382e-01  -2.8422172422814932e-03 -3.1068324966234654e-03 1.5944918779405590e-01  -3.4961716938520346e-03 -3.5023655565670341e-03 9.1816558315288260e-02  -4.6523064477534360e-03 -5.0857120788833044e-03 9.3154268077249539e-02  -5.4225770923054832e-03 -8.2341322664988646e-03 1.2067240200902593e-01  -1.8915010521770568e-03 -9.4342664226831716e-03 8.6626263588340427e-02  -1.1403020331545478e-03 -3.0370357283136173e-03 1.4383184898460818e-01  -4.6017396082616416e-04 -3.9634831099997657e-03 1.0427680772789966e-01  -7.2584719360537231e-03 -1.5755890097492922e-02 1.4197687814191134e-01  -6.1079673299917880e-03 -3.6397920758695838e-03 1.2142866948044442e-01  3.4361656403898206e-04 -1.7363215878270037e-04 1.6459909686895652e-01  2.7808801897169245e-04 -1.3097617035678178e-04 1.4781922968305189e-01  2.2128657144967697e-04 1.6360346838121453e-03 1.4204223228813603e-01  5.6166222001412482e-07 2.3789822794850746e-04 1.1846555221014461e-01  -2.8622028564285647e-03 -2.0057775243198669e-03 2.3811105462515324e-02  2.8658607956196947e-05 5.2841950051894500e-04 1.8237858973461282e-01  1.6696683134062194e-04 -3.1629902545924700e-05 1.4805819319498958e-01  2.2520396889609193e-04 -5.5177423370760307e-04 1.8060991792315551e-01  3.0904583276440055e-04 5.0339764766327375e-04 1.6823450977577520e-01  1.7956708211501064e-04 -2.0734284990686015e-04 1.4208281379160367e-01  3.3833679730005303e-04 1.5627768629905307e-03 1.8969592976273111e-02  5.2476939891111802e-04 1.2830696221242322e-02 8.9986911898627939e-02  -2.5884323605217998e-03 1.0871089119575638e-02 7.6433666091828847e-02  -3.4960278854265460e-03 5.6223486850795175e-03 8.5964479663357546e-02  -4.9707560625316630e-04 4.8912646847603580e-03 1.4078666493525510e-01  3.8462655116787842e-03 8.4255785196861999e-03 1.3188344112321293e-01  -3.0861870447343139e-04 5.2608425979834587e-03 8.9238269308183266e-02  8.2194195475714712e-03 -1.0079869274005348e-02 1.2546994663595099e-01  7.0664304322908484e-03 1.3341755147854848e-03 1.4759983063089221e-01  4.8744801468475814e-03 4.8655775785545118e-04 1.0880711769229968e-01  3.6569085751762833e-03 -4.2962719265830351e-03 1.3792099746775816e-01  1.0860847139175234e-02 1.3026365930552198e-03 9.2050143559445352e-02  1.3650200560665014e-02 -3.7742615035705135e-03 1.4451896354509228e-01  1.3430541773845402e-02 -9.7187937054236534e-03 9.4971423110908032e-02  5.9129620717405943e-03 -3.6610448264218069e-03 7.6052168687314195e-02  3.7784641673440636e-03 -2.1867403750162446e-03 1.2795069261590816e-01  8.8136722660511497e-04 -5.7107964540844007e-04 1.5272876726397841e-01  -6.1253046140384711e-04 1.2875249042824863e-03 1.6986140677194828e-02  -6.4801220366199081e-04 1.0918397385253431e-03 1.7504178665080986e-02  -1.0542549697759348e-03 5.3617100544083181e-04 6.7562093199526871e-02  6.1070228955649810e-04 2.4554813449468795e-03 7.4512612341843407e-02  -5.7141552650260619e-04 -2.1424987528593112e-04 1.4665478179340374e-01  1.7550169852728421e-03 9.1188982588720220e-04 1.5525144730837903e-01  1.0799467715284534e-03 -2.2875983437680354e-03 1.8465893786579771e-01  9.0323230956530776e-04 1.3594527647621815e-03 1.7739042237566541e-01  6.9804568095264345e-04 1.4659742609634580e-03 1.6353149197852748e-01  -6.5032084314352052e-04 1.2976972819453694e-03 1.7360792760484738e-02  -4.5151547408809483e-04 1.1540811347433989e-03 1.7810814543559612e-02  -5.2399925121168094e-04 4.6523361052289826e-03 1.4160296600588204e-01  -1.9944285024038103e-03 1.5006533305453288e-03 1.7194778257033003e-01  -8.3700587889403409e-04 1.5734376910939434e-03 1.6922693374545033e-02  -2.1794412357489711e-04 1.6545573675023691e-03 1.7420997315001328e-02  -5.8175608481701366e-04 1.5452067174070582e-03 1.6490302455272460e-02  2.6042674217302683e-03 -1.5469772313612855e-03 8.0860009890615744e-02  2.7870117109030372e-03 9.0915420295197621e-04 1.4588506902754322e-01  2.5395617839667085e-03 2.6490269307164740e-03 1.3382740993725334e-01  1.8296946903105281e-03 -2.4310752938087239e-04 1.4869057110916473e-01  -1.1149270582791625e-03 1.2420745064944067e-03 9.4096560600725104e-02  1.1441272116872142e-03 -3.4137168097477769e-04 1.3008059241976463e-01  -4.6676837491055096e-04 -5.9271355047775195e-04 1.1918684762442668e-01  1.4029203614557510e-03 -4.8971196517038654e-05 1.3837147032653746e-01  -2.0304739374835787e-03 -4.3622879812576479e-04 6.6097034223136494e-02  1.3801883612926339e-03 -1.0320720774424543e-03 7.7293516551236965e-02  -7.9438476912351182e-04 1.8314633028371592e-03 1.1997734726901682e-01  4.0511511108692698e-04 3.2934089603503189e-04 1.2012710000507146e-01  9.3314401499481226e-04 1.0240771144472522e-03 1.0111619445465300e-01  -8.9913922859434709e-04 -1.0882460420937440e-03 6.1264615184717562e-02  5.2349751800312135e-04 1.4561069153064673e-03 8.4979727498431260e-02  1.7434793268428217e-04 -7.9308132979391500e-04 1.4794035319017543e-01  -2.7083331642984354e-04 -1.2894637623460294e-03 1.5207057867433352e-01  -1.9131977549954993e-04 8.2578797593688656e-04 1.0419508192178964e-01  -9.4360238966707311e-04 1.2059234224021046e-03 1.6234984147190432e-01  -6.9385590039454132e-04 -5.5431161496712219e-04 1.3430466396752300e-01  1.6891038623333276e-05 1.1147219984216819e-03 1.2646530372761175e-01  -1.1215399229419821e-04 2.1763121490505012e-03 1.6719832497440063e-01  -3.0187073329234279e-04 -1.8428207208023783e-03 1.7336215678444722e-01  3.7093596587610937e-04 5.5687647032533276e-05 1.7524400166612476e-02  4.8748313854395244e-04 -2.1710473346069016e-04 1.7762921559997789e-02  2.3190502691612186e-04 -4.4829131106593410e-05 1.7491230433114791e-02  -1.3005276879705132e-04 7.2280572890015679e-04 7.7126971198603719e-02  1.1706999663972965e-03 1.3292281879034348e-03 2.4493789357772525e-02  -4.8183723805268844e-04 1.2246805830092864e-03 1.8907130564876445e-02  1.1670260516843500e-03 1.6358846593574996e-03 2.0726200455747024e-02  -1.8130175289072560e-04 8.8392258639774941e-06 2.1738718818778452e-02  8.3863659582033288e-04 8.7669048469534545e-04 1.6402024086300770e-01  -1.0876331361500124e-02 -7.3579040679333399e-04 1.5108042342061220e-01  -1.0890635922719018e-02 -2.8731120889906791e-03 8.8048243161760117e-02  -1.6818579059248225e-02 -7.9029788801830217e-03 1.0971280208073957e-01  -9.0797184443732071e-03 1.1669761152566108e-03 1.3943821430559536e-01  2.3075165069145328e-03 -1.7424679644304608e-03 1.2488683929141933e-01  4.9493169173367669e-03 -5.2659270632695546e-03 1.2929100740422703e-01  -1.8703754507935197e-04 7.7384167206990043e-04 1.8983491028218103e-02  -1.5411783084931811e-04 6.9458144635370052e-04 1.9536188865276440e-02  -7.4649459006224895e-04 4.4754674178705274e-04 7.8884494317299672e-02  -6.8295915195640548e-04 7.6907809333504453e-04 8.8491806487049532e-02  1.7938723296326384e-03 -2.9968296875645317e-03 8.2388179748624765e-02  -1.2610115808457613e-03 -9.4910918749886752e-04 1.4759065271669891e-01  -4.0020892792885128e-03 -1.4469192384373717e-03 2.1273423201667897e-02  -1.2876762622775182e-03 8.3827711528907626e-04 1.8033267393947363e-02  -1.1397798479091874e-03 8.3609402168855179e-04 1.8510000287896334e-02  -1.7234883583317368e-04 -5.1557313763104108e-04 1.4370534521724593e-01  1.2919676609467423e-04 -4.2797273490126661e-05 1.3751049762534170e-01  -4.8397186753634527e-05 3.4451869972031553e-04 1.3893656303440940e-01  -3.4370930777562442e-04 3.5152443052910339e-04 1.0116313938011949e-01  -2.7205525750760204e-04 3.6168012410215500e-04 9.0849876976893271e-02  -6.9049103529815502e-04 -1.9051975710833051e-04 1.3536670851290789e-01  -1.2853962019134633e-04 -3.3617919737794589e-04 1.7032151546211791e-01  -2.1412176479599696e-04 2.1612975531196238e-04 1.4097122238591500e-01  -1.3303680076597876e-04 8.7972959046659393e-05 1.0677344932061296e-01  -1.2659871149926956e-04 1.0489004669969074e-04 1.6547242411217625e-01  -2.8667906157922964e-05 2.8782276827233483e-04 1.0991116415313620e-01  6.0305826508932068e-04 -9.6782363505756240e-05 1.7772689708688318e-02  4.9973341022600240e-04 4.9642525232920379e-05 1.8024132462071848e-02  1.3439479487273997e-05 1.9335489982216822e-03 8.5834525640543349e-02  -8.2313564838028274e-04 2.8229155488776704e-03 6.1801505701871956e-02  -3.1071045367062815e-04 -3.1861835977977640e-04 1.5783238730802088e-01  4.4327355254625045e-05 -2.6454606969130763e-04 1.0485424399546255e-01  5.8006803739719839e-06 -7.7180662093426894e-04 1.6886029676236425e-01  5.1200913539312283e-04 -2.0481635667949437e-04 1.8080532845953599e-02  4.5710174791019370e-04 -1.7415618841532860e-04 1.8478522403768207e-02  -6.0994337367315920e-04 -3.9411792681360485e-04 1.2031479071597066e-01  9.2803070760825827e-04 4.7692811855368602e-04 9.3215543032098183e-02  2.3863998915521357e-04 9.5220927111803235e-05 1.0867857406523436e-01  9.3768173208288368e-04 9.3594354065197171e-04 1.0282719764472319e-01  6.6537227858326508e-04 1.1442102796065422e-03 1.6609138111317814e-01  -6.5979932970560142e-06 1.0521204597082384e-04 2.0580490624800111e-02  3.9479285406687407e-06 1.5555329186668030e-04 2.0557877998866970e-02  2.5820098059762560e-05 3.3203765876467468e-04 2.0147806606029474e-02  8.7682686710818260e-05 -3.1798273813792683e-04 9.0189335387669586e-02  8.8229710670966775e-05 5.6392627137701895e-05 1.7263326331841605e-01  2.6573035218195644e-04 -2.7702646417502306e-04 1.7498770575821396e-01  1.2530679671973861e-05 -1.3319499949413518e-03 1.4029311743684503e-01  -4.9427961863810778e-04 -2.3501327622584177e-04 1.5287849297672018e-01  -7.4139801668356945e-04 -3.1243724609321416e-04 1.6108430488077935e-01  -8.1567778673123897e-04 3.3843132223235016e-04 1.5093697641809953e-01  2.9887828869641349e-04 1.1247366758556632e-03 1.7368969799929097e-02  1.7703177408117258e-04 1.0380337718879204e-03 1.7732218676216004e-02  -1.1951983431414933e-03 -4.0552747799190494e-04 6.2515434542084927e-02  7.0317285025977270e-04 -9.8913555608713395e-04 8.4621017542898136e-02  5.0834183608473181e-05 -5.3585605882361137e-04 1.3566918652526724e-01  4.7043582554883823e-04 -1.0629081510519038e-03 1.4551784477688684e-01  -1.4644598734259108e-03 1.1561829154930888e-03 1.7307078596695166e-01  7.2842978456212637e-05 1.3073542447759794e-03 1.5270432799920927e-01  -5.2499279345320426e-03 2.8056669817357271e-03 1.3184825765146413e-01  -5.6582665177189939e-03 3.8677459028343118e-03 1.3479398810974833e-01  -1.4171338609021027e-02 1.2409570399122952e-02 1.3523633099574714e-01  -4.9692444055088854e-05 -2.0854714220709859e-04 1.7815688281868153e-01  2.0581873586891555e-04 -4.7683771299185005e-04 1.6580343753984483e-01  3.1552120718961966e-04 -4.6510223369850316e-04 1.5216415227566119e-01  -4.2041892778386507e-04 -4.1983715999889055e-04 1.8214013193890652e-01  1.1699655064141784e-04 -9.3098959305042866e-04 1.5798308527828517e-01  3.4926644877972360e-04 -3.6717422649625703e-04 1.6018138776205385e-01  2.0629777825216869e-04 -3.2576159541582704e-04 1.7638297078581910e-01  -8.9439650437241714e-05 3.3391177224893336e-05 1.4920541993873473e-01  -1.9130912313476049e-04 -1.9188092175080065e-04 1.5112337163608974e-01  7.7644949427763165e-04 -8.0964792321921837e-05 8.3182609754789152e-02  3.1649456438311583e-04 -5.6646459194290531e-04 1.1409122496498618e-01  7.7520405067691469e-05 -4.6075306665822196e-04 1.1864458896800220e-01  3.8299460062612772e-04 1.9252324301562149e-04 6.9176448086884709e-02  -2.5213660067138009e-05 -4.1743793157333968e-04 8.7962982150025015e-02  1.0526305960993031e-04 -8.4340569478939342e-04 1.1434025273425910e-01  -1.2237803636859929e-04 5.4169645777574769e-04 8.7749148371175228e-02  -9.3763733897160454e-05 -5.5848164876923234e-04 8.1868262345292528e-02  9.0747773892931993e-03 -7.0247227824553945e-03 7.8019690523244742e-02  8.6649602575317192e-03 -6.4036073171042330e-03 8.7766505166774658e-02  2.8845317154843671e-03 -3.5418040769762587e-03 6.6685846532972881e-02  1.3507081410207459e-02 -1.6393615369389002e-02 1.2666077127696290e-01  -1.9177857661976022e-02 -1.0904863133170675e-02 1.3101151070531059e-01  -1.2756122030171834e-02 -2.3335338280815767e-02 1.2832945666753581e-01  -1.1039113480623198e-04 2.3774712562342983e-04 1.8826161057931307e-02  -1.4908219756115412e-03 7.5580100022466540e-04 1.9181597592796942e-02  -1.1371591442192283e-04 7.3009890392173083e-05 1.7753980603784910e-02  -4.0219382908707121e-03 4.9099527542923417e-03 7.8400819303582017e-02  2.2984204156313369e-03 -1.8180690873481131e-02 1.2560763429014932e-01  1.2486633836611073e-03 -3.1282083617501705e-02 1.2260366527838693e-01  -1.3124144877015294e-03 -1.5092427266704270e-02 1.0112962196118785e-01  -9.6859262640114248e-03 -8.0745969479631748e-03 7.5630546548861075e-02  1.1666717564035792e-02 6.6155503106501970e-03 1.3775957626774843e-01  1.6300201502873330e-02 1.0044331728934274e-02 1.3136122480888551e-01  1.8350885094347260e-02 9.2820571782114680e-03 1.1087350393156048e-01  6.9773104296762464e-03 4.5363834505369660e-03 1.0693138819260772e-01  1.2529308578835661e-05 1.0290792094755163e-04 2.0642316692927955e-02  -2.3681587800959750e-05 1.0959935039869018e-04 2.0623407228395729e-02  7.7366570707896568e-05 -4.8365064577731071e-04 1.0966975956029229e-01  2.9211732829851668e-04 1.0882056680612444e-03 2.0200203299559100e-02  -1.7431096079833586e-03 1.9108214491315382e-03 2.1309940205739855e-02  -1.8688773833697369e-03 3.3745430799796187e-03 7.0091883900060728e-02  -8.0760568564393489e-05 4.6753262819938389e-04 1.7442880224847004e-01  -3