<?xml version="1.0"?>
<VTKFile type="UnstructuredGrid"  version="0.1"  >
<UnstructuredGrid>
<Piece  NumberOfPoints="857" NumberOfCells="3763">
<Points>
<DataArray  type="Float64"  NumberOfComponents="3"  format="ascii">-0.0182597916573 0.126128911972 -0.119588643312  -0.0077641364187 0.0512270443141 -0.07050477713349999  -0.0237180162221 0.16240182519 -0.053058128804  -0.107877351344 0.105669431388 -0.0502408407629  -0.0444478429854 0.116080775857 -0.00235075876117  0.0393674038351 0.112876079977 -0.0491501875222  0.0248903874308 0.0489483103156 0.000152088920004  0.0314915925264 0.114928804338 0.0218031276017  -0.0657326281071 0.0685198307037 0.0497140102088  -0.0355357266963 0.164656624198 0.0508319064975  -0.010538729839 -0.0422629192472 -0.208358153701  -0.0239527057856 0.0135364839807 -0.242119863629  -0.0194642152637 -0.0775559768081 -0.263431429863  -0.08492307364939999 -0.0108216870576 -0.280446648598  -0.08293507993220001 -0.0361198186874 -0.159778758883  -0.0240796487778 -0.0824203491211 -0.148982465267  0.0430508553982 -0.121076337993 -0.234084427357  0.0307756774127 0.0324950888753 -0.198437720537  0.00352357281372 -0.00433266581967 -0.144715368748  -0.0456651262939 0.08372022956609999 0.342343091965  -0.116630032659 0.0117083769292 0.386158525944  -0.08223126828669999 0.0577075146139 0.289406776428  -0.0511222109199 0.00205342215486 0.300772219896  -0.0125984866172 0.0267426930368 0.351842552423  0.0303636882454 0.0561947338283 0.391145974398  -0.0524924062192 0.0543583929539 0.40361738205  -0.07944945245979999 0.130002260208 0.441037595272  -0.000730989675503 0.119443200529 0.385622620583  -0.078488714993 0.137875169516 0.332541137934  0.0142801422626 0.110509291291 0.27100610733  0.0224165506661 0.08303219079970001 0.331783413887  -0.0170432701707 0.161798536777 0.30022162199  0.000811119796708 -0.0515509881079 -0.08419398218390001  0.0888616070151 -0.015075173229 -0.0776951387525  -0.0989535748959 -0.0518730916083 -0.08125374466180001  -0.0433920919895 -0.09785594791170001 0.0106235472485  -0.0488061010838 0.0295096840709 -0.0131453983486  -0.25 0.25 0.5  -0.166666666667 0.25 0.5  -0.25 0.195066730511 0.445658150344  -0.19506166517 0.25 0.445542865294  -0.0213422998786 -0.126349791884 -0.045622177422  -0.117952652276 0.0158270020038 -0.16616243124  -0.0531469397247 0.0490713231266 -0.13630309701  0.0358348339796 -0.131537660956 -0.134171053767  0.0583617314696 -0.115307979286 -0.0462360456586  0.010585160926 -0.0606908276677 0.314250290394  0.078067921102 -0.133790805936 0.331458956003  0.0206208750606 -0.104583717883 0.36723652482  0.0300164371729 -0.13569638133 0.270959883928  0.0797956883907 -0.07311873137949999 0.388136893511  0.0291880238801 -0.0850581228733 0.220644980669  0.0788302049041 -0.07555303722620001 0.284453928471  -0.0465739220381 -0.108428947628 0.305151432753  -0.056692365557 -0.0812899768353 0.234353885055  0.10282895714 0.0630551427603 -0.0452189296484  0.178613707423 0.153893724084 -0.0703043565154  0.0750898644328 0.130835875869 -0.116260357201  0.0179002508521 -0.0400723591447 0.396018892527  0.07961820065980001 -0.020668130368 0.232235535979  -0.00726175494492 -0.022667773068 0.242156982422  0.0524490773678 0.0171752162278 0.310696065426  0.0103002395481 0.0813155695796 0.107229083776  0.00225681974553 -0.008687185123560001 0.0457225777209  0.177950121638 0.25 0.0405701099774  0.151375159621 0.202163234353 -0.00268407491967  0.13042794168 0.172564610839 0.0599601529539  0.184557154775 0.16295710206 -0.00737970136106  0.0827306732535 0.011830884032 0.0299163535237  0.106673434377 0.0676268041134 0.0663062110543  0.25 0.25 0  0.25 0.177947182503 0.0435581305687  0.0251978598535 -0.0201241951436 -0.0233656335622  -0.25 -0.25 0.25  -0.175495340629 -0.25 0.295351832328  -0.25 -0.175776260788 0.294629825204  -0.164853364229 -0.189889326692 0.246240898967  0.111295968676 0.25 -0.00354384794953  0.0417815256417 0.25 0.0264120515999  0.0577150444892 0.25 -0.0418173710713  0.035034801811 0.196921139956 -0.0497792549431  -0.115254960954 0.0352221727371 -0.0357825122774  0.0360979661345 0.0743419006467 -0.130612716079  0.08110298216340001 0.0143552683294 -0.135737240314  0.0281950440258 0.110801942647 -0.38559025526  -0.000352636008756 0.154027625918 -0.45018479228  0.0220217909664 0.07910815626379999 -0.445265561342  -0.041934799403 0.09297795593740001 -0.440330862999  -0.115356497467 0.128115877509 0.0303980205208  -0.08144567906859999 0.192924261093 -0.0396481454372  -0.0503155887127 -0.140062868595 0.370642662048  0.0181560348719 -0.191118896008 0.319997102022  -0.09442232549189999 -0.0766885429621 0.347179293633  -0.10306725651 -0.0245223585516 0.261891931295  -0.0371639840305 -0.192689821124 0.258922994137  -0.08778057992460001 -0.193450272083 0.293951839209  -0.116932563484 -0.137108251452 0.278956532478  -0.0434515699744 -0.19969072938 0.340430229902  -0.016621209681 -0.143479332328 0.208528921008  -0.0799133181572 -0.177766740322 0.206858798862  -0.0340202823281 -0.07231882214550001 0.405357718468  -0.153045728803 -0.0703692808747 0.28540495038  -0.0647673308849 -0.069349065423 -0.297796696424  -0.0468406006694 -0.118580199778 -0.331259429455  -0.0636249184608 -0.122360698879 -0.235275790095  -0.137311711907 -0.115820750594 -0.279358655214  -0.25 -0.25 0.333333333333  -0.00222280388698 -0.0275516584516 -0.327156513929  0.0233143884689 -0.124395690858 -0.330935031176  -0.00544846989214 -0.0444226972759 -0.392852008343  -0.07202984392639999 -0.0450558848679 -0.379192590714  -0.128861442208 -0.0482712239027 -0.325591087341  -0.0319190612757 0.25 0.27473160228  0.0259018652141 0.196524605155 0.343851953745  -0.0424101948738 0.196461260319 0.324036180973  -0.08801463991400001 0.193724930286 0.280150324106  -0.051391992718 0.129726842046 0.244459152222  0.0793330296874 0.131078347564 0.273738384247  0.0304427426308 0.197590425611 0.258007407188  0.139736711979 -0.103549621999 0.308288753033  0.117407329381 -0.00031748006586 0.284001767635  0.17845864594 0.0137020656839 0.2717012465  0.133446916938 -0.07468281686309999 0.252671837807  0.193237304688 0.0103836003691 0.32706490159  0.108656100929 -0.016409387812 0.370573759079  0.195593327284 -0.0705924406648 0.374003827572  0.204297035933 -0.0882691517472 0.283604085445  0.15987212956 -0.0232784096152 0.211559042335  0.103109702468 -0.0715631917119 0.185957938433  0.25 -0.177950121638 0.0405701099774  0.25 -0.111295968676 -0.00354384794953  0.168315500021 -0.181550845504 -0.0129796266556  0.203061833978 -0.0839376300573 0.0201103240252  -0.123973377049 0.0421161539853 0.0831994190812  0.10652089864 0.041568480432 0.133020982146  -0.00508088478819 0.00464248098433 0.118765294552  0.0384838804603 0.0542355030775 0.219570666552  0.0556482039392 0.09942726045850001 0.165778696537  0.25 -0.25 0  0.25 -0.17904445884 -0.0421267671166  0.0085972994566 0.139411628246 0.206887423992  -0.0427397117019 0.0734880268574 0.199836358428  0.25 -0.25 0.166666666667  0.177338154858 -0.25 0.209433902167  0.178222204231 -0.25 0.126578397361  0.180748909712 -0.154124230146 0.180074676871  0.118582360446 0.0498475395143 0.233844980597  0.113276541233 0.115120351315 0.208414897323  0.068451166153 0.123325429857 0.09300038218499999  0.08695217221980001 0.18308262527 0.11987875402  0.1366494596 0.0978636816144 0.125807240605  0.0170362386853 0.165571182966 0.116205818951  -0.075325883925 -0.13042730093 -0.120773427188  -0.191016584635 -0.1764793396 -0.0778442546725  -0.102759346366 -0.20253264904 -0.07015967369080001  -0.126150563359 -0.115044787526 -0.0573479756713  -0.138729035854 -0.104583211243 -0.134180948138  -0.147993162274 -0.138949289918 -0.203295826912  -0.180331096053 -0.192031860352 -0.160557568073  -0.194399222732 -0.0846866071224 -0.148938387632  -0.11259970814 -0.078034222126 -0.193649172783  0.0326924659312 -0.122268341482 0.0296003930271  0.0215157996863 -0.180560961366 -0.0757267251611  0.0956164896488 -0.0493310950696 -0.0164182558656  0.112129375339 -0.112067811191 -0.105549775064  0.127802968025 -0.106147237122 -0.0110959038138  -0.0854129120708 -0.015297700651 0.056893799454  -0.0204317308962 -0.0795602425933 0.117458000779  -0.178222204231 0.25 0.126578397361  -0.177947182503 0.25 0.0435581305687  -0.107976816083 0.25 0.0905854563709  -0.157577678561 0.178241759539 0.0969507619739  0.25 -0.25 0.333333333333  0.25 -0.25 0.25  0.175776260788 -0.25 0.294629825204  0.25 -0.175495340629 0.295351832328  0.0932372882962 -0.0430554822087 0.0724518448114  -0.044769000262 -0.00661279587075 0.403999477625  -0.194478780031 -0.0247275307775 0.332954645157  -0.173761367798 -0.0806607827544 0.396263659  -0.137637495995 0.00523930834606 0.315887242556  0.0864742994308 -0.139340251684 0.176064118743  0.105438224971 -0.136641919613 0.253711819649  0.0308670303835 -0.25 -0.136809572586  0.0367561832589 -0.25 -0.219583441074  0.0925811678171 -0.20055809617 -0.19996842742  0.0127155454829 -0.193433105946 -0.225977659225  0.0415658205748 -0.200880005956 0.196522325277  0.0373581312597 -0.119548290968 0.120048768818  -0.0954102815882 -0.25 0.346414074494  -0.101368582479 -0.25 0.251933327382  -0.0374909392175 -0.25 0.286229296012  0.0852289572358 0.109103307128 -0.27055695653  0.07707493752239999 0.127253636718 -0.199824258685  0.128097131848 0.07648140937090001 -0.209757223725  0.154867321253 0.13628205657 -0.212952241302  0.08678253740069999 0.189277544618 -0.274375885725  0.127699971199 0.0803090333939 -0.326344817877  0.0577741526067 0.0601542405784 -0.31936660409  0.0525139421225 0.129102528095 -0.326874881983  0.0251371748745 0.175572559237 -0.261228203773  0.0199144631624 0.0927290171385 -0.265960127115  -0.148952946067 -0.121583275497 -0.374568909407  -0.25 0.177950121638 0.0405701099774  -0.25 0.111295968676 -0.00354384794953  -0.175531774759 0.135734900832 0.0562076568604  -0.178730383515 0.191659659147 -0.00562386959791  -0.0244714934379 -0.108516678214 -0.387223660946  -0.09279609471560001 -0.170035287738 -0.445968538523  -0.0281062982976 -0.0
[...]
<PointData  Vectors="f_78"> 
<DataArray  type="Float64"  Name="f_78"  NumberOfComponents="3" format="ascii">4.7511715293324374e-06 -3.4219533730276236e-06 -4.4886821331445942e-03  -5.6700163179365729e-07 5.4698314892398754e-06 -4.1276181758116695e-03  -3.9792265954926631e-06 -2.8106059494489167e-05 -3.9619378897269887e-03  6.3579538802084357e-06 -4.2884415902182852e-06 -3.6098371903313582e-03  7.5462429355734636e-06 -2.2106462849611145e-05 -4.4087168400105464e-03  7.2219477726500422e-06 5.1064789521640710e-05 -3.8859962485052698e-03  -2.0251558812450738e-06 1.8291989133951532e-05 -4.3305565841445714e-03  3.5923041316916754e-05 1.5227439392642401e-05 -3.9454182060509871e-03  1.0851386216622951e-06 -1.4438116135794093e-05 -4.1584302120291307e-03  -3.6731388691674344e-05 5.4401358928526159e-05 -3.5691447540120835e-03  -2.9494783672519282e-06 1.6646785859856887e-05 -4.2542719412479689e-03  -8.6787266650777628e-07 9.3663254658867935e-06 -4.2784612010540188e-03  5.0664812503551119e-06 1.3108514252180568e-05 -4.2379885478282297e-03  -7.7238811800779141e-06 1.5226702160977014e-05 -4.3982677713805029e-03  1.8625436546188804e-05 1.8406661554647543e-05 -3.5673271414866517e-03  9.5233470276286284e-06 1.2700308072358206e-05 -3.8812524456232956e-03  2.2197336434659091e-05 -2.0602937127578673e-05 -3.4885183473935149e-03  3.1970951253886685e-06 1.1246614716562036e-05 -4.0870731067356282e-03  6.8641508275967261e-06 -1.2033570885459531e-05 -4.0707355025964070e-03  1.2032132418359426e-04 -2.0189982460841428e-04 -4.3434714013417764e-03  -2.0528387189523299e-04 -3.0708201912470974e-05 -4.4492199895206563e-03  -8.0014015367319284e-05 3.0423759345442065e-05 -4.0900659907746988e-03  -1.1263526534530978e-04 -3.3409190642934251e-05 -4.2515721132825573e-03  1.8638689719020680e-05 9.9429374865711903e-05 -4.4636531858494545e-03  7.4057210686782744e-05 8.5128678857345435e-05 -4.4346655808946856e-03  3.0813968420515591e-05 4.0749008201537958e-05 -4.2481749837320563e-03  1.8401733935767466e-04 5.3668842730096632e-05 -4.0601804541124994e-03  -2.9579378429986607e-06 1.1283535951144825e-04 -3.9498293749942459e-03  -1.7701233009472298e-05 1.2978534201387113e-04 -4.3554499430496574e-03  -2.8302102246899276e-05 7.8983711948310296e-05 -4.6096055783047957e-03  5.7941046033063503e-05 5.0957751437476892e-05 -3.9168318724370774e-03  -1.5459305543713735e-04 1.3843256609440978e-04 -3.8373153927011589e-03  -9.7789951883459690e-08 6.8980932409980828e-06 -4.2939719147523933e-03  -9.0465884541459825e-06 1.3686849053814964e-05 -4.2674190938439818e-03  -1.0122622312400737e-05 -2.0061470810667184e-06 -4.2782302341570766e-03  7.5376071244259573e-06 1.5698520888540103e-05 -4.1419750140705902e-03  -3.0026692880551042e-06 2.4781575292403869e-05 -4.2543458773564398e-03  5.3552915169715870e-06 -1.5847664290494506e-06 2.2963484468758259e-05  7.7698775510846740e-06 -1.2029826351931392e-05 4.1095434877152813e-06  9.0274776260859242e-06 1.4248677347372530e-06 1.0458141872132957e-05  9.8655607557231286e-07 -2.2765909159801580e-07 4.5476216476317982e-06  -2.2938582048993068e-05 4.7467496131101803e-05 -4.0424853407745121e-03  -2.5172417982833588e-06 2.0184317110168526e-05 -4.2809837755531654e-03  3.9065251553838428e-06 1.5909402135025789e-05 -4.5424088382150021e-03  -5.0899033028050155e-06 -4.2059513164739555e-05 -4.0163834031398541e-03  -1.4930661792386834e-05 -1.6673084393282792e-05 -3.8899677925855638e-03  3.0198686531448699e-05 9.9667495748840494e-06 -4.1232671042330778e-03  -6.8873625031336722e-05 7.9556611255122824e-06 -4.4193194281615744e-03  -1.2271859087771548e-04 -9.7408890279262488e-05 -4.6020874022303423e-03  1.9968712707677417e-05 4.7033024981710258e-05 -3.7374481593075303e-03  1.4024212950188803e-04 -2.0567475471119416e-04 -4.0558613047568986e-03  1.6196081769067786e-05 -2.1825025095773812e-06 -4.1264201709014462e-03  9.2583227046859047e-05 -8.5030815526860179e-06 -3.9220771820294041e-03  -6.2734683570397660e-05 -9.2668906600231602e-05 -3.5892272367897510e-03  1.9545572985707827e-06 2.0243083075885119e-05 -4.0619441633083916e-03  -2.1763730823331243e-05 2.3545127464179234e-06 -4.0924139247625144e-03  -4.5023504464977670e-05 3.1337036021275896e-05 -3.0715455222209368e-03  2.4504016932875410e-06 1.1191537888414178e-05 -4.0942184549187547e-03  -2.2649570132869849e-05 -3.1841472755471823e-05 -4.3567701821886637e-03  -1.7980250138447821e-05 -9.6649498338724018e-06 -4.3691243165504068e-03  -7.2341815655673605e-06 5.7606841191294134e-06 -4.1888117190449058e-03  8.0356311362287245e-05 2.5665830362819678e-05 -4.0040221576997208e-03  1.2511812416079576e-05 1.2456339847068836e-05 -4.1816281242674181e-03  -4.9982312906352483e-07 4.6359028609986524e-06 -4.4027392238293788e-03  -5.8885326523322723e-06 1.7192235263293607e-06 -5.4054877697848840e-07  -9.3069814630313862e-06 9.0556554984854559e-05 -4.4415703113017463e-03  3.4255825982419604e-05 -1.7597044111614468e-04 -3.5736015985795688e-03  -6.9237469199902741e-05 8.5256472912117803e-05 -3.2017132090546904e-03  -1.1154445031306605e-05 1.8017689361740953e-05 -4.2063732363370474e-03  -2.6162245624101788e-05 -8.2514324127881300e-06 -3.9503901843309982e-03  -7.9063512044902761e-06 -6.9420593813907989e-06 -1.7648924061408561e-06  5.5277513927419184e-06 -1.2408889957922177e-06 -3.5601427300920816e-07  1.3217426992410727e-05 1.0533185780571534e-05 -4.5076272744108284e-03  5.7807239707642422e-06 6.9689908587913009e-06 -3.1875532767853644e-06  1.6720132615794522e-06 -2.4129086614687715e-06 3.7000373858448346e-06  -6.9224010285329412e-06 2.9389755889943463e-07 5.4834258698877020e-06  -6.4101333801624784e-05 -2.0858296131268613e-04 -2.8358520341870094e-03  -1.1009744930705450e-06 -2.4942551315653657e-07 1.4753243731057424e-06  -1.0873650969955536e-06 -3.3250706995815748e-06 7.3028356277192304e-08  -6.4915451635791169e-07 4.6578195453513710e-06 1.4358521462949957e-06  -5.4481020511812744e-05 9.3476761177704848e-05 -3.7749016047247635e-03  -6.2547677138246227e-05 -2.9590782214002761e-05 -3.9609233566393221e-03  8.7851544929804523e-06 -4.1330018788533936e-06 -4.5094121258877230e-03  3.0308966754191927e-05 -7.4096353469071167e-06 -3.9177215288933413e-03  -3.9716994616955336e-06 -3.3129568452944771e-05 -3.7484877285208391e-03  -4.1880556656297424e-05 -8.9153755994253786e-06 -3.1737673670422825e-03  1.5205125633172466e-05 -1.4629210241194849e-05 -4.1487733161651684e-03  1.6737396909604541e-05 -5.3984057308372346e-05 -4.3162874408362471e-03  -9.5157692073314900e-05 -5.1501409860300681e-05 -4.4690296698709619e-03  -1.6956316321333220e-05 -1.5511732032719378e-04 -3.2675443373097468e-03  1.1074633125452353e-04 -1.4162356442515390e-04 -3.9422252041372806e-03  -1.0319733716175372e-05 4.9371221137180018e-05 -3.4325592075088950e-03  -1.6480370801274350e-04 -1.1538669294672253e-05 -4.0391492739054987e-03  4.0202835106324647e-05 -6.7973484922930838e-05 -3.9897755160504967e-03  -4.8241265956280268e-05 6.4617721232167598e-05 -3.6801094912632419e-03  -2.1433162670363893e-05 -1.1109947620749361e-04 -2.6473691723386946e-03  6.3580593728320494e-05 -4.4984793405579078e-05 -4.3726061020663478e-03  1.8424186445905615e-04 8.9799030772063160e-05 -3.9226822018015584e-03  2.0058255514111392e-05 -6.7460892234383574e-06 -4.0098805414504968e-03  9.7828610351180766e-06 1.2593193070418857e-04 -3.7170966513728910e-03  -1.4669993288446119e-04 1.2158642563856038e-04 -4.2304502790453009e-03  7.3967442827306711e-06 -1.5409585206932078e-05 -2.7469264370068398e-03  3.5379377114166630e-05 1.5319181429732047e-05 -3.6639824261679899e-03  2.8460070628810968e-05 2.4590511237850868e-05 -4.4308720553935836e-03  -2.8434950168340989e-06 -4.8211249963957134e-06 -3.5433665155862842e-03  -3.5483379592009124e-05 9.9522293661760501e-06 -3.4296346320968202e-03  4.7991417610777853e-06 2.8430074111543828e-06 -1.7857575429714577e-06  2.1058077686442603e-05 1.5564803398635984e-05 -4.1717225375471840e-03  1.5520378591651258e-05 2.2721653622608591e-05 -4.5827550391371622e-03  1.5632752490858909e-05 3.1362982628708784e-05 -4.3497110823466113e-03  1.5204276135672102e-05 1.9389267281180814e-05 -4.3197217565633245e-03  3.4132105057613573e-05 1.4737439267263647e-05 -2.7354847840193241e-03  1.7714400573245964e-06 -9.0762913723367069e-07 8.3417769789705795e-07  7.1433043521631684e-05 7.6113733951846125e-05 -3.9300013115146394e-03  -2.7374260213202620e-04 4.8677386583039150e-07 -3.9329951697084625e-03  2.7928610189008709e-04 -1.8664565445873115e-04 -3.7025232170983060e-03  -7.4837314202929966e-05 2.1218653914957192e-05 -4.5547319907273537e-03  2.2736596292606435e-05 5.2014076546557864e-05 -3.6307964405258080e-03  1.1688234081126750e-05 -4.3565765899700353e-06 -4.2915818886574445e-03  -1.3485702952288637e-05 -1.2281671798020125e-05 -4.2186980577741864e-03  -4.5738574679105243e-06 1.2650814819831376e-05 -3.9433797101342200e-03  1.1770503743592469e-05 -3.8155434360493865e-05 -2.7621087885186823e-03  1.1420811135110575e-05 1.9377639238889839e-05 -3.7843872610688013e-03  -1.3153709136671648e-04 -4.8812967975973701e-05 -3.2211172074486437e-03  6.6108313562503150e-05 6.2377320794225049e-05 -4.3531393847954384e-03  2.4479907182297484e-04 2.5498102600427309e-05 -4.0539599191787394e-03  1.1583672812427659e-04 7.1434101305007712e-07 -3.9260087422286032e-03  -7.7670374489932872e-05 1.5400439469417100e-05 -3.8349037635146406e-03  4.0245923330647290e-06 -3.3570585097947393e-05 -3.0868312036931933e-03  7.2771613628361246e-06 -3.3182502505249045e-07 -1.7682824023260035e-06  -7.4291588143968170e-07 -3.0926768953773364e-06 1.3250905669169573e-06  -1.9439728802326443e-04 1.1697812117979853e-04 -3.7648472563582376e-03  7.7877900365579090e-05 -1.2989190699001695e-04 -2.9054741390542190e-03  4.2444463312125666e-05 2.6365335871162211e-05 -4.3244788836338350e-03  4.9069033193986978e-06 -2.0102857651183555e-06 -3.8278562772799873e-03  7.2002635575511255e-06 3.3897867298369458e-06 -4.2481036418427305e-03  -1.4569496202675151e-05 1.8343516258033898e-05 -4.3928683559239365e-03  1.9841791238555411e-06 -3.5431028493680912e-05 -3.9283257458663026e-03  -3.5652800789872651e-06 1.1409430929383149e-07 5.9111942680777307e-06  1.7958382005644711e-06 2.1742588020360412e-06 4.1520048087620350e-07  -5.2204237595580292e-05 1.2248694502848765e-05 -3.8397281447104773e-03  2.8232354748365293e-05 3.4662775084696669e-05 -3.9831132642229186e-03  2.1795229754466253e-06 1.9254768164322610e-06 3.8339961057456039e-06  1.4816774792493882e-06 -1.0564259546436666e-05 2.6024247142248927e-06  -2.4717559800533493e-06 -6.1209348299038004e-06 -5.0664067215671742e-08  -9.4086716495559626e-05 9.9088621267768266e-05 -3.1220003869368820e-03  1.4406940677689704e-05 3.2577937277862395e-05 -4.1304821559612001e-03  1.4742694059047650e-05 -1.6207059152829638e-06 -3.5188530234126140e-03  -5.2451090316180522e-05 1.4452392651853263e-05 -4.2264854062327266e-03  -1.6015340023257189e-05 -7.0866536837859318e-05 -4.1199446096055201e-03  1.1337730225566799e-05 -4.6797456303075233e-05 -3.1178491250594964e-03  3.7006833098361555e-05 -3.8690520214813932e-05 -2.8196159008968781e-03  -1.6017065476854373e-05 4.0368258215539713e-05 -3.8727370826533184e-03  -5.9541636489408791e-05 -1.0922595053139962e-04 -3.3621420426764559e-03  4.2706128708578870e-05 -2.7820606073188911e-05 -3.7614365202638970e-03  -2.8632439458164530e-05 1.7958385778208345e-05 -3.7608882845401037e-03  2.8441716083135541e-05 1.0805827272120859e-05 -2.9255512675696559e-03  5.3423290712191590e-05 -9.6488058815591166e-06 -3.8739073413969743e-03  7.9429109408984410e-05 -5.6246125084960712e-06 -3.4564706240018677e-03  1.5013100713236085e-04 1.5457814647657679e-04 -3.9633300346599287e-03  4.6468411024169774e-05 1.0573830019822405e-05 -3.7669311403575869e-03  -1.7463374021658072e-05 -2.5555464435798083e-05 -4.0675001737599630e-03  -8.7054912588700175e-05 7.5521384640808595e-05 -3.1302676299062616e-03  7.6484139831933661e-07 -1.7587501973923992e-05 -3.9828009259364550e-03  1.1340257130434605e-05 -2.5010987847010022e-05 -3.5971606768295905e-03  3.4968523952648034e-05 -1.3697454663574855e-05 -4.3456340105228336e-03  3.2586772966921253e-05 -1.9820580187498610e-05 -4.0057629656410788e-03  -4.9668038507012016e-06 1.0496376519740555e-06 -4.3010621917117901e-03  1.6778525702975819e-06 5.7184786743837295e-06 -2.1049810861513576e-06  1.4706689254624107e-06 5.8793139765867487e-06 3.4242152392151106e-07  3.5549723411699718e-06 -7.9555617048441409e-06 2.0951170755640480e-07  -1.1686602610100613e-05 -2.0981308399968450e-05 -2.8625773595597672e-03  -1.9408222356911391e-07 5.7941526527894416e-07 1.3934738915630183e-06  -8.0364041359869036e-06 8.0835762114422183e-06 2.1485298452316313e-06  -5.0933204351045553e-07 -8.0732165853316367e-06 2.6500065155692219e-06  6.5851185923856113e-06 1.8939649056491651e-06 6.1766404950690132e-07  -2.0345544367013051e-05 7.9812335064552592e-06 -3.9102826919903506e-03  -2.1004488637786443e-05 7.8931118169757298e-05 -4.2954876538821079e-03  1.8961027505681505e-04 -1.4612174268808858e-04 -3.4440153176420983e-03  -3.0418360573051189e-04 -2.9475548723233113e-05 -3.5820098544209981e-03  6.3413237454196779e-05 -2.8873947269534500e-05 -2.9520443767865933e-03  9.2957994291779740e-05 1.0629224993589134e-04 -3.1398644192121359e-03  -2.7538794827832474e-05 -1.1227125413317435e-04 -3.7594028251371732e-03  6.0787264984224830e-07 6.4770264824230355e-07 7.8469477219792891e-07  1.8578965093703435e-06 7.2250856887973446e-06 -2.1441796953855088e-07  5.9604138216987518e-05 -1.6812466862408414e-05 -3.5817844936038533e-03  -6.7366490316262016e-05 1.5095735986110130e-04 -1.5923714036184509e-03  -3.0323894791859091e-05 -2.9258340888946150e-05 -4.4317055519114690e-03  1.0578049681969515e-06 4.0087678092812394e-05 -4.0612434061038120e-03  -1.9522526839978423e-08 1.1489523957496467e-06 2.8531411605025206e-06  -3.2635784785202367e-06 -2.2639672410688302e-06 5.3327640064266031e-06  -3.5046798509761818e-06 1.2420574244231602e-06 1.0947085287937485e-06  5.6059711062667514e-05 6.5875186477635623e-07 -3.4928004992154454e-03  -1.9560598186017409e-05 -5.8238845937066531e-05 -3.5795976421946997e-03  1.5290538566445433e-05 -1.4960534396021789e-05 -3.8294483878077859e-03  -9.7558051903186074e-06 9.3744820064474747e-06 -2.8342313252587639e-03  7.4970875347785381e-05 -8.5306161728049415e-07 -2.8054669469723941e-03  -1.3123809879027924e-05 1.9635388789266854e-05 -4.7919654846338318e-03  9.6225005432404995e-06 9.6912388691164534e-06 -4.2905798126275868e-03  -2.9070059143005534e-09 -7.2835198793006489e-06 -3.5649163021197233e-03  -6.9502297566239200e-05 -4.3843561910744124e-05 -2.8879902444963849e-03  -6.9139086795880626e-06 6.8433781226685966e-06 -4.4746998538019063e-03  1.0971302268893995e-05 -4.2633808728294480e-05 -3.7397584657568646e-03  -2.6770988407866393e-06 -2.5837503979059222e-06 9.3068943435222165e-07  -1.1050874051270943e-06 7.4452670790291301e-07 7.3002873084812660e-07  2.8139008838474485e-04 -1.7419263718465502e-04 -3.1923961584578039e-03  -1.6544376186481530e-04 6.2267491100226829e-05 -3.4449267389941958e-03  -2.4647618786505891e-05 4.9769129649278547e-05 -3.7843815045402580e-03  3.4112474750010427e-06 5.3019921768392201e-05 -4.0837616700950419e-03  8.9707326830378594e-06 5.3135186125593255e-05 -4.4313655191442914e-03  6.7770974996610984e-06 -9.5354311208999399e-06 -1.7067851104915909e-06  -1.2290175783215913e-05 8.2922861662584350e-07 4.3889194351265881e-06  -1.2692225393727286e-05 -6.1268803130842413e-05 -4.0158573061437131e-03  7.9343964690165521e-05 1.6416653185200650e-05 -3.0428422641522062e-03  -3.3182565828605956e-05 5.5526367949625753e-06 -3.3736092803274107e-03  -6.6145722902401959e-05 4.7423708427869254e-05 -4.4892951769722553e-03  1.0454713104396076e-05 1.2395227161200720e-06 -4.1986252152277489e-03  7.8777683966035011e-07 1.7967238551188816e-06 -4.8369040259325340e-06  2.5605097465862101e-07 5.4247787237674742e-07 -3.5468218963588966e-06  7.6347105455515345e-07 -2.4191328839236562e-06 1.1234678072519831e-06  1.2746129758089605e-05 6.5571048712071662e-05 -3.8789709211089888e-03  1.3737115037036589e-05 5.7052164561710003e-06 -3.9848730487138809e-03  3.1787056717377586e-06 1.3713263860262330e-05 -4.3286644790048352e-03  -4.0809107435629227e-06 1.1436238315423939e-05 -3.6484882946254864e-03  3.1332796675636767e-05 -7.4356935355083078e-07 -4.5842508791889107e-03  -3.9055801361133719e-05 -2.2586081574124771e-05 -4.2287858154392748e-03  1.8342847367535947e-06 -5.3108511695415501e-06 -3.9641181989114680e-03  1.8480159619613666e-06 -2.8177212891366838e-06 1.5961394483653490e-07  -3.5857794614594391e-06 -3.4945432466420254e-07 2.5241775296146824e-07  -1.5281028478669644e-04 9.2069753303939933e-06 -3.5326675108527592e-03  4.0515104114675344e-05 7.3500869443365459e-05 -3.2860624201210948e-03  3.1911338035455645e-05 -1.6578714594521031e-05 -2.9821156810803900e-03  4.5793426009997474e-05 -2.8054727600678732e-05 -3.9060804382103041e-03  -1.7030704864713924e-05 -1.3963519863237541e-05 -4.1283943545242681e-03  -7.1556200082776950e-06 -4.9714688606601907e-05 -3.3955282141730513e-03  4.7568197401965328e-05 -1.3480869096974029e-05 -4.3021651371269974e-03  -6.5419479080438425e-05 6.9578718887109377e-05 -2.7636578226308706e-03  -9.8343883329057676e-05 5.6939147132510587e-05 -3.0531500186914721e-03  3.4818916957433667e-05 3.6438086950380727e-07 -4.1807044057994482e-03  7.0046674170937432e-05 2.7846576597119078e-05 -4.7090601474938949e-03  4.9252450809117435e-05 -4.2919846733022683e-06 -3.9349597418803237e-03  1.9461100280583608e-06 1.1888751214210992e-05 -4.0756264760152643e-03  2.7786452316302907e-05 -3.0434659713320411e-05 -4.3340147051543132e-03  1.9907700985099737e-05 -5.3893810765667690e-05 -4.4102791139152796e-03  1.5037911621344283e-05 3.0231330844898352e-07 -4.3641099752641209e-03  2.1263892315687207e-05 1.2756416188426569e-05 -3.4859366088195840e-03  -2.6313704384354853e-05 1.5985663644105605e-05 -3.9240687197605274e-03  2.0869847073493295e-05 -4.0103686686328361e-06 -2.9215950302425501e-03  3.7551078540081116e-05 2.5765116382059360e-05 -3.5962731260674704e-03  6.8428252737452573e-06 -6.7658757266163020e-05 -4.2409977251415551e-03  -6.8624380755305606e-05 -9.8147860039952362e-05 -4.2091012768277983e-03  -5.8518327245078709e-05 3.1832571637763407e-05 -5.1393482248680566e-03  -4.7118239506769857e-05 6.4790650279562451e-05 -2.5765651742239689e-03  7.2626819181740717e-05 -3.4293362035910892e-05 -4.5943134329095884e-03  -1.1623853213564223e-05 -1.1440134016185783e-04 -2.3473513812711125e-03  2.3112850172673704e-05 -3.8595320697996265e-06 -3.9771831318562122e-03  -1.2535622799238628e-05 1.0817601338341851e-04 -2.8641294754794592e-03  4.8236802014345591e-05 -1.9804803239449338e-04 -4.5907058332294130e-03  4.3746115095026965e-05 3.3758067186226815e-05 -3.2904973618567831e-03  -1.8379446820915478e-04 -2.8925654713844583e-05 -3.9919115451158352e-03  -1.3346273611443792e-04 1.0156985839525816e-04 -3.8994429279110244e-03  3.7097402058879886e-06 8.3142895022926783e-06 7.8615295007339899e-07  -8.6296022083748482e-07 -1.2530924699782561e-05 -7.7843364981154334e-07  -4.7163861676624193e-06 8.0035190985295956e-06 6.1665749424001550e-07  7.1737489735115465e-05 -5.6841782571586736e-05 -3.6412198185061611e-03  -1.1694725542259985e-04 -8.0205966895838292e-05 -3.8950329131232368e-03  7.7282287043693729e-05 1.4567027367388098e-04 -4.3620033375125584e-03  -1.1552267116488004e-04 -2.6458348865819652e-04 -3.8017511122608416e-03  -1.8546256990272878e-04 1.0017985416077105e-04 -4.4511192096768504e-03  -3.5021138921867115e-05 -2.5714814566789537e-05 -4.2910400157239606e-03  1.1157602356565845e-04 4.7652216676359815e-05 -3.8637176710216155e-03  3.7448113683994185e-04 -6.5129877829078544e-05 -3.4798176259645142e-03  4.0676869365686992e-05 5.5540212672522386e-06 -4.1355285911391457e-03  1.7967104408177424e-06 5.4808567757452695e-06 -5.1091345633300727e-06  -1.8660663670705906e-07 3.5496659922131118e-06 -5.2369487312745179e-06  2.9254394350154038e-05 1.6309662607777369e-04 -4.6797137748655869e-03  4.9472736748215432e-06 -2.0864969205218131e-06 -2.3844031359053067e-06  -1.23535