<?xml version="1.0"?>
<VTKFile type="UnstructuredGrid"  version="0.1"  >
<UnstructuredGrid>
<Piece  NumberOfPoints="857" NumberOfCells="3763">
<Points>
<DataArray  type="Float64"  NumberOfComponents="3"  format="ascii">-0.0182597916573 0.126128911972 -0.119588643312  -0.0077641364187 0.0512270443141 -0.07050477713349999  -0.0237180162221 0.16240182519 -0.053058128804  -0.107877351344 0.105669431388 -0.0502408407629  -0.0444478429854 0.116080775857 -0.00235075876117  0.0393674038351 0.112876079977 -0.0491501875222  0.0248903874308 0.0489483103156 0.000152088920004  0.0314915925264 0.114928804338 0.0218031276017  -0.0657326281071 0.0685198307037 0.0497140102088  -0.0355357266963 0.164656624198 0.0508319064975  -0.010538729839 -0.0422629192472 -0.208358153701  -0.0239527057856 0.0135364839807 -0.242119863629  -0.0194642152637 -0.0775559768081 -0.263431429863  -0.08492307364939999 -0.0108216870576 -0.280446648598  -0.08293507993220001 -0.0361198186874 -0.159778758883  -0.0240796487778 -0.0824203491211 -0.148982465267  0.0430508553982 -0.121076337993 -0.234084427357  0.0307756774127 0.0324950888753 -0.198437720537  0.00352357281372 -0.00433266581967 -0.144715368748  -0.0456651262939 0.08372022956609999 0.342343091965  -0.116630032659 0.0117083769292 0.386158525944  -0.08223126828669999 0.0577075146139 0.289406776428  -0.0511222109199 0.00205342215486 0.300772219896  -0.0125984866172 0.0267426930368 0.351842552423  0.0303636882454 0.0561947338283 0.391145974398  -0.0524924062192 0.0543583929539 0.40361738205  -0.07944945245979999 0.130002260208 0.441037595272  -0.000730989675503 0.119443200529 0.385622620583  -0.078488714993 0.137875169516 0.332541137934  0.0142801422626 0.110509291291 0.27100610733  0.0224165506661 0.08303219079970001 0.331783413887  -0.0170432701707 0.161798536777 0.30022162199  0.000811119796708 -0.0515509881079 -0.08419398218390001  0.0888616070151 -0.015075173229 -0.0776951387525  -0.0989535748959 -0.0518730916083 -0.08125374466180001  -0.0433920919895 -0.09785594791170001 0.0106235472485  -0.0488061010838 0.0295096840709 -0.0131453983486  -0.25 0.25 0.5  -0.166666666667 0.25 0.5  -0.25 0.195066730511 0.445658150344  -0.19506166517 0.25 0.445542865294  -0.0213422998786 -0.126349791884 -0.045622177422  -0.117952652276 0.0158270020038 -0.16616243124  -0.0531469397247 0.0490713231266 -0.13630309701  0.0358348339796 -0.131537660956 -0.134171053767  0.0583617314696 -0.115307979286 -0.0462360456586  0.010585160926 -0.0606908276677 0.314250290394  0.078067921102 -0.133790805936 0.331458956003  0.0206208750606 -0.104583717883 0.36723652482  0.0300164371729 -0.13569638133 0.270959883928  0.0797956883907 -0.07311873137949999 0.388136893511  0.0291880238801 -0.0850581228733 0.220644980669  0.0788302049041 -0.07555303722620001 0.284453928471  -0.0465739220381 -0.108428947628 0.305151432753  -0.056692365557 -0.0812899768353 0.234353885055  0.10282895714 0.0630551427603 -0.0452189296484  0.178613707423 0.153893724084 -0.0703043565154  0.0750898644328 0.130835875869 -0.116260357201  0.0179002508521 -0.0400723591447 0.396018892527  0.07961820065980001 -0.020668130368 0.232235535979  -0.00726175494492 -0.022667773068 0.242156982422  0.0524490773678 0.0171752162278 0.310696065426  0.0103002395481 0.0813155695796 0.107229083776  0.00225681974553 -0.008687185123560001 0.0457225777209  0.177950121638 0.25 0.0405701099774  0.151375159621 0.202163234353 -0.00268407491967  0.13042794168 0.172564610839 0.0599601529539  0.184557154775 0.16295710206 -0.00737970136106  0.0827306732535 0.011830884032 0.0299163535237  0.106673434377 0.0676268041134 0.0663062110543  0.25 0.25 0  0.25 0.177947182503 0.0435581305687  0.0251978598535 -0.0201241951436 -0.0233656335622  -0.25 -0.25 0.25  -0.175495340629 -0.25 0.295351832328  -0.25 -0.175776260788 0.294629825204  -0.164853364229 -0.189889326692 0.246240898967  0.111295968676 0.25 -0.00354384794953  0.0417815256417 0.25 0.0264120515999  0.0577150444892 0.25 -0.0418173710713  0.035034801811 0.196921139956 -0.0497792549431  -0.115254960954 0.0352221727371 -0.0357825122774  0.0360979661345 0.0743419006467 -0.130612716079  0.08110298216340001 0.0143552683294 -0.135737240314  0.0281950440258 0.110801942647 -0.38559025526  -0.000352636008756 0.154027625918 -0.45018479228  0.0220217909664 0.07910815626379999 -0.445265561342  -0.041934799403 0.09297795593740001 -0.440330862999  -0.115356497467 0.128115877509 0.0303980205208  -0.08144567906859999 0.192924261093 -0.0396481454372  -0.0503155887127 -0.140062868595 0.370642662048  0.0181560348719 -0.191118896008 0.319997102022  -0.09442232549189999 -0.0766885429621 0.347179293633  -0.10306725651 -0.0245223585516 0.261891931295  -0.0371639840305 -0.192689821124 0.258922994137  -0.08778057992460001 -0.193450272083 0.293951839209  -0.116932563484 -0.137108251452 0.278956532478  -0.0434515699744 -0.19969072938 0.340430229902  -0.016621209681 -0.143479332328 0.208528921008  -0.0799133181572 -0.177766740322 0.206858798862  -0.0340202823281 -0.07231882214550001 0.405357718468  -0.153045728803 -0.0703692808747 0.28540495038  -0.0647673308849 -0.069349065423 -0.297796696424  -0.0468406006694 -0.118580199778 -0.331259429455  -0.0636249184608 -0.122360698879 -0.235275790095  -0.137311711907 -0.115820750594 -0.279358655214  -0.25 -0.25 0.333333333333  -0.00222280388698 -0.0275516584516 -0.327156513929  0.0233143884689 -0.124395690858 -0.330935031176  -0.00544846989214 -0.0444226972759 -0.392852008343  -0.07202984392639999 -0.0450558848679 -0.379192590714  -0.128861442208 -0.0482712239027 -0.325591087341  -0.0319190612757 0.25 0.27473160228  0.0259018652141 0.196524605155 0.343851953745  -0.0424101948738 0.196461260319 0.324036180973  -0.08801463991400001 0.193724930286 0.280150324106  -0.051391992718 0.129726842046 0.244459152222  0.0793330296874 0.131078347564 0.273738384247  0.0304427426308 0.197590425611 0.258007407188  0.139736711979 -0.103549621999 0.308288753033  0.117407329381 -0.00031748006586 0.284001767635  0.17845864594 0.0137020656839 0.2717012465  0.133446916938 -0.07468281686309999 0.252671837807  0.193237304688 0.0103836003691 0.32706490159  0.108656100929 -0.016409387812 0.370573759079  0.195593327284 -0.0705924406648 0.374003827572  0.204297035933 -0.0882691517472 0.283604085445  0.15987212956 -0.0232784096152 0.211559042335  0.103109702468 -0.0715631917119 0.185957938433  0.25 -0.177950121638 0.0405701099774  0.25 -0.111295968676 -0.00354384794953  0.168315500021 -0.181550845504 -0.0129796266556  0.203061833978 -0.0839376300573 0.0201103240252  -0.123973377049 0.0421161539853 0.0831994190812  0.10652089864 0.041568480432 0.133020982146  -0.00508088478819 0.00464248098433 0.118765294552  0.0384838804603 0.0542355030775 0.219570666552  0.0556482039392 0.09942726045850001 0.165778696537  0.25 -0.25 0  0.25 -0.17904445884 -0.0421267671166  0.0085972994566 0.139411628246 0.206887423992  -0.0427397117019 0.0734880268574 0.199836358428  0.25 -0.25 0.166666666667  0.177338154858 -0.25 0.209433902167  0.178222204231 -0.25 0.126578397361  0.180748909712 -0.154124230146 0.180074676871  0.118582360446 0.0498475395143 0.233844980597  0.113276541233 0.115120351315 0.208414897323  0.068451166153 0.123325429857 0.09300038218499999  0.08695217221980001 0.18308262527 0.11987875402  0.1366494596 0.0978636816144 0.125807240605  0.0170362386853 0.165571182966 0.116205818951  -0.075325883925 -0.13042730093 -0.120773427188  -0.191016584635 -0.1764793396 -0.0778442546725  -0.102759346366 -0.20253264904 -0.07015967369080001  -0.126150563359 -0.115044787526 -0.0573479756713  -0.138729035854 -0.104583211243 -0.134180948138  -0.147993162274 -0.138949289918 -0.203295826912  -0.180331096053 -0.192031860352 -0.160557568073  -0.194399222732 -0.0846866071224 -0.148938387632  -0.11259970814 -0.078034222126 -0.193649172783  0.0326924659312 -0.122268341482 0.0296003930271  0.0215157996863 -0.180560961366 -0.0757267251611  0.0956164896488 -0.0493310950696 -0.0164182558656  0.112129375339 -0.112067811191 -0.105549775064  0.127802968025 -0.106147237122 -0.0110959038138  -0.0854129120708 -0.015297700651 0.056893799454  -0.0204317308962 -0.0795602425933 0.117458000779  -0.178222204231 0.25 0.126578397361  -0.177947182503 0.25 0.0435581305687  -0.107976816083 0.25 0.0905854563709  -0.157577678561 0.178241759539 0.0969507619739  0.25 -0.25 0.333333333333  0.25 -0.25 0.25  0.175776260788 -0.25 0.294629825204  0.25 -0.175495340629 0.295351832328  0.0932372882962 -0.0430554822087 0.0724518448114  -0.044769000262 -0.00661279587075 0.403999477625  -0.194478780031 -0.0247275307775 0.332954645157  -0.173761367798 -0.0806607827544 0.396263659  -0.137637495995 0.00523930834606 0.315887242556  0.0864742994308 -0.139340251684 0.176064118743  0.105438224971 -0.136641919613 0.253711819649  0.0308670303835 -0.25 -0.136809572586  0.0367561832589 -0.25 -0.219583441074  0.0925811678171 -0.20055809617 -0.19996842742  0.0127155454829 -0.193433105946 -0.225977659225  0.0415658205748 -0.200880005956 0.196522325277  0.0373581312597 -0.119548290968 0.120048768818  -0.0954102815882 -0.25 0.346414074494  -0.101368582479 -0.25 0.251933327382  -0.0374909392175 -0.25 0.286229296012  0.0852289572358 0.109103307128 -0.27055695653  0.07707493752239999 0.127253636718 -0.199824258685  0.128097131848 0.07648140937090001 -0.209757223725  0.154867321253 0.13628205657 -0.212952241302  0.08678253740069999 0.189277544618 -0.274375885725  0.127699971199 0.0803090333939 -0.326344817877  0.0577741526067 0.0601542405784 -0.31936660409  0.0525139421225 0.129102528095 -0.326874881983  0.0251371748745 0.175572559237 -0.261228203773  0.0199144631624 0.0927290171385 -0.265960127115  -0.148952946067 -0.121583275497 -0.374568909407  -0.25 0.177950121638 0.0405701099774  -0.25 0.111295968676 -0.00354384794953  -0.175531774759 0.135734900832 0.0562076568604  -0.178730383515 0.191659659147 -0.00562386959791  -0.0244714934379 -0.108516678214 -0.387223660946  -0.09279609471560001 -0.170035287738 -0.445968538523  -0.0281062982976 -0.0
[...]
<PointData  Vectors="f_57"> 
<DataArray  type="Float64"  Name="f_57"  NumberOfComponents="3" format="ascii">2.1823217214323536e-03 -3.3283758063466823e-03 -3.8919540343476319e-02  2.6367797200956399e-03 -4.9988387467919887e-03 -3.9281925594939419e-02  4.2315960700577035e-04 2.0439734664098575e-03 -3.5468183291330689e-02  1.0651662434280803e-02 -5.8269103703960101e-03 -4.8582878978040957e-02  1.0043142438394959e-02 -9.7561154284776189e-03 -6.0518947431058581e-02  1.1151804154541780e-02 2.6029823216027074e-03 -4.1974669187062906e-02  -3.3384787577393402e-03 2.5704723703191493e-03 -3.9614541153607657e-02  8.9712867265675129e-03 -1.9931186284624790e-03 -4.2479667973737881e-02  2.8185973177965097e-02 -1.3876567540741966e-02 -6.4881408904768595e-02  1.1549221977327058e-02 -2.5807541171595917e-03 -3.9229946249338281e-02  -3.0701389784299160e-04 1.6059832457075434e-03 -4.0160710432269132e-02  -1.4672382535591180e-03 2.2781644143640327e-03 -3.6648469657836760e-02  -6.4570473531770319e-04 -1.0874660748737062e-03 -3.3960768413203772e-02  -3.0402987611068441e-03 1.9153667891015551e-03 -3.0500852084424757e-02  4.1161272329359369e-04 -4.5971296557664318e-03 -3.8905323197839119e-02  2.7766997219147204e-03 -2.4357208084836660e-03 -4.3401023466386461e-02  -3.1310314195778133e-03 -1.0133918524735234e-03 -2.5880864244518971e-02  -2.6838555625433388e-04 1.3631608369107718e-03 -3.6522889285097122e-02  1.6248649651011266e-03 -2.5086515130763572e-03 -4.1958128250114919e-02  1.0157332615562249e-01 -3.4404653477347585e-02 -6.2845219286331327e-02  4.9976197224680642e-02 -6.2656446688134040e-02 -3.3705357701413266e-02  3.6794986155643410e-02 -1.2355747369159528e-02 -6.7333610458247276e-02  4.6179849242805084e-02 -1.1571891151584864e-02 -4.6780854519258688e-02  8.1095745463333049e-02 -8.3031677983953556e-02 -1.9157801010107046e-02  9.5097500331293605e-02 -4.8371192982128546e-02 3.6744238255520170e-03  5.5916388983979472e-02 -1.6992369953040896e-02 -4.9418942006192824e-02  2.6263481653697507e-01 -1.4738352968524365e-01 -1.1624438144645820e-01  1.1203924198469613e-02 -2.1134775838993574e-02 -5.4669953746336229e-02  -6.9688381125683402e-02 9.9475028153690678e-02 -4.4165366187612742e-02  5.5946615150040246e-03 -2.5536945823457897e-02 -5.4623235815224581e-02  6.8311085469803232e-02 -5.9759586766609616e-03 -3.4111126459401800e-02  6.0504928144533537e-02 -3.5107697458312936e-02 -3.9267216385529602e-02  1.3386747306483901e-03 -4.7010561531174390e-04 -4.0259113971204713e-02  1.5508832808773469e-03 -4.5619045003616613e-03 -3.5267512764048346e-02  2.2642615648847645e-03 8.0957503274553479e-04 -3.6518469553717257e-02  -7.5321546387133317e-04 4.3675163546557094e-03 -3.7846141988692308e-02  4.1565512161708717e-03 -1.5854885379681584e-02 -5.3122468149101695e-02  -3.4823462964412982e-01 3.6137213246804850e-01 -3.1323272073521263e-01  -1.9983407537983308e-01 2.9904378025407741e-01 -1.8402899769366002e-01  -2.3689062249629461e-01 1.3660739816525486e-01 -1.8461117882870928e-01  -1.5918005410900682e-01 1.9393656438312493e-01 -1.0832465510712556e-01  3.8594610586220957e-03 -9.7271956172533783e-04 -3.9650491272873511e-02  -1.4590762996195253e-02 5.8302881141688830e-03 -2.2488894972423869e-02  7.5716505316645978e-03 -3.6213933319501554e-03 -4.6640780046502989e-02  2.6005154623308714e-03 -1.6029961969222615e-03 -3.4446696585755561e-02  2.7114755797589909e-03 5.5703485769384173e-03 -4.5280488888541574e-02  4.4399470282663625e-02 -1.3524632286135638e-02 -1.8460855132390007e-02  2.7770601892451442e-02 -2.1599872233958966e-02 1.2952169301438065e-04  3.4864378661208180e-02 -3.1178429361242720e-02 4.5244385358656387e-03  2.4278903826323053e-02 -3.6107976459675325e-04 -1.8390705918639696e-02  3.4911648503990568e-02 -2.8180710530942423e-02 3.3114873913963165e-02  3.4715061432862265e-02 -2.7803336103560675e-04 -4.6009838091497182e-02  3.3775610162981945e-02 -4.4659027149178418e-03 -1.5878549283956551e-02  2.0096034029284771e-02 -1.1560941417415396e-02 7.4431825546380555e-03  3.2515666074550524e-02 -1.1315385615337932e-02 -6.0253657863996980e-02  -4.2203695570727654e-04 1.5731895985354872e-03 -2.7994799126911659e-02  -4.7010207271647895e-03 4.1257177132250563e-04 -2.6426597535938783e-02  4.3198286181602551e-03 2.2359671623579918e-03 -3.2063077971863752e-02  6.3527584374851467e-02 -1.1431120705952027e-02 2.8909015902359538e-03  2.3468205196852124e-02 -1.3173747728804032e-03 -3.7592824002182189e-02  4.4797403266923094e-02 -7.7896635918666126e-03 -6.1634468526950897e-02  2.7838995768113856e-02 -1.2693610343575688e-02 -2.8518892969770206e-02  4.0496533506240136e-03 3.4826809873668100e-03 -4.7501507246651607e-02  -3.3420716566484494e-03 -1.0866831252102190e-02 -4.0507041054003247e-02  -7.9906588044193589e-04 8.5576856977507120e-03 2.6758888492248180e-03  -1.9746355552278539e-02 -2.7860562711756027e-03 -6.3878968904060342e-03  9.4416309066177855e-03 -5.8032023216118087e-03 -2.4606387816086209e-02  1.7333568358131135e-03 1.2220362587796322e-02 -1.4202888021361737e-03  -4.2035089025561033e-04 3.1600015929157776e-03 -3.5696092615649648e-02  4.3281751068670708e-03 3.6868802690845841e-03 -4.3931325891587401e-02  -4.9642723857818978e-04 7.2103439230148895e-03 -3.7255112073311897e-04  -5.7712665497058207e-04 8.2111438453703351e-03 2.2445577753691967e-03  4.3660772412979403e-03 3.3898548624818631e-03 -2.7173913107641372e-02  -4.2540136801429866e-02 -3.1800289444912415e-02 3.7119722376737697e-02  -5.1668460559639029e-02 -4.8999878623760304e-02 2.5030793048406188e-02  -4.6972795741502149e-02 -4.0238440320580084e-02 4.3596857320415995e-02  5.2944499248321313e-04 -3.6469733357575612e-02 2.0733175690488007e-02  -4.6724387196743558e-03 7.5754621390495720e-03 -8.7195546382811426e-04  -7.3408231475333126e-03 9.2110692241709220e-03 1.9757733579273211e-03  -5.9281754769203400e-03 6.1228076894609398e-03 -3.2896743132758573e-03  1.3839285105262257e-02 1.5858439805287031e-05 -1.2430851098536219e-02  -6.2943591992833071e-03 -2.0751561110149758e-04 -2.8774828316133039e-02  3.6510576782658455e-03 1.5023413313891272e-03 -4.3217778078296618e-02  2.7108163745926039e-03 2.8139955086908417e-03 -3.1564162441460313e-02  1.1937532301401492e-03 6.6483540154323910e-04 -3.7520787479322415e-02  1.4732287589163927e-03 6.8275495109070667e-04 -2.7905166948411129e-02  7.4371499818253958e-04 -1.7099460845842996e-03 -3.8024438583053904e-02  3.0549438913021905e-03 -8.2584142045053735e-04 -3.3279538593449474e-02  1.6673250929245764e-02 -1.5198849629153433e-02 -4.5427387944865477e-02  -1.4174179738652014e-03 -7.4684497430313631e-04 -1.3239459611750005e-02  1.0593462002403849e-01 2.9492004558865446e-02 2.3389392530153139e-02  2.1152467384528893e-02 -5.0040635221806802e-03 7.7812509714718040e-03  5.7008720798285527e-02 -3.0882114286522140e-03 -2.8762619940811668e-02  8.9910283468052285e-03 -3.7897981205270895e-02 -4.1688988980163801e-02  4.7877230962994767e-02 2.0750746690999661e-02 -3.9042554187601164e-02  -4.7941474986194247e-03 2.4265237628993933e-03 3.7411054956836200e-02  8.0853214625405553e-02 -1.3417530845755046e-02 -1.0742805152775334e-01  7.0253278138799349e-02 1.5214652222440370e-02 -9.7043518785436874e-03  2.5271307176304256e-02 5.6965078862020119e-03 -4.1343756268929444e-02  1.3095732685377420e-02 -4.3673297162736173e-03 -1.7641828962271157e-02  7.3600641271063263e-02 -1.8429392685161500e-02 1.6222347543618714e-02  -1.2486867946679589e-02 -8.2137164931689821e-02 -6.0022983140007634e-03  -5.0068049111068645e-03 -3.2230338766181370e-04 -3.1603554122050362e-02  -2.6649985114656203e-03 2.2675018121652711e-03 -2.8881158328049019e-02  -4.6774449415330661e-03 -3.8022979547881787e-03 -2.8205783076471067e-02  -2.7415855706667013e-03 -8.8615649478230099e-04 -2.6309625586532936e-02  -1.3005002873751115e-01 -1.2962863905639824e-01 7.7161296637163158e-03  -1.5678540486878873e-03 -7.9258367436261612e-04 -3.3424337154386190e-02  -6.0539192482917769e-04 1.1201813553826882e-03 -3.2590454327761122e-02  -8.1668327033448918e-04 1.3827568973397316e-03 -3.7282636200142424e-02  -9.2771966190770814e-04 -4.1070826222475900e-03 -3.4931967639036360e-02  2.0544239706753466e-03 -4.2808170793260036e-05 -2.8751535333781233e-02  -3.1370833594732916e-02 2.6835674015788919e-02 1.0797039586930455e-02  1.2303081494183049e-01 -4.2074218281803993e-02 2.2852543579932076e-03  5.5855727514770574e-02 5.5846711629415598e-03 -1.3381131949697952e-01  -3.5999614466557604e-02 9.4724411865515737e-02 6.6460340552395955e-02  -3.8338185044139425e-02 1.2202711480881466e-02 -9.4631666509210101e-03  1.8583254533957531e-02 -5.4772570340233338e-03 -2.7537051939491717e-02  6.6266193917800652e-03 -5.9090946628106078e-04 -2.6717463847090357e-02  2.6236035823205602e-02 5.2305881067507805e-03 7.6632936026788971e-03  1.6581626855963549e-02 -2.5679535436952915e-02 -1.0321392878379031e-02  1.0723890152843127e-02 -1.9756643487989480e-02 -8.5541572891469249e-03  1.9614028349046419e-02 -1.1323225075236552e-02 -1.8772633253575137e-02  -1.2873033518960153e-02 -1.3336456168385245e-02 -4.4290982639881397e-03  3.2935174441774288e-02 -2.1363367672083560e-02 8.3110970869861684e-04  6.1922763682181591e-03 1.2390722478582384e-03 1.4322161393461775e-02  8.6533584528861712e-03 -5.1472336680792657e-03 6.3155649742351857e-03  2.3918236260050941e-03 -2.5259340605097744e-03 -2.5903575405593605e-02  1.8129243450053036e-02 -1.9873149294074830e-02 -2.4242970281568119e-02  -2.0630013387245441e-03 -9.0895321852602822e-04 -1.7115771307294279e-03  -1.3474338743053465e-03 -2.5462529423768339e-04 -4.8752098207656865e-03  -1.6488381127151140e-04 8.5704201869452948e-05 -4.5362140474329649e-03  -5.0090557042190590e-03 -9.3273697188885150e-03 -1.5901738996611223e-02  1.6311624869053500e-03 -1.1193166158304882e-02 -4.0800993769144936e-02  5.5057958245007855e-04 -7.9532221460714425e-03 -2.6772061351956016e-02  -3.3605176721247976e-03 1.5239788907442622e-02 -3.1478788532211914e-02  2.5948511278283241e-02 -2.7882002414727512e-02 -4.7604944849591310e-02  1.2870928860059753e-02 -9.2925297329478507e-03 -5.8991085024715020e-02  -1.7906628744797546e-03 -1.2720313066774090e-03 -4.3796415099905100e-03  -1.8740073212054321e-03 -1.1342915174269970e-03 -6.9335798337742446e-03  3.6462205184901599e-02 -5.1449266248159813e-03 -4.2543305043559097e-02  4.2188860063056603e-02 -2.8242654038147755e-02 -6.0571051371368805e-02  -1.9406768333642152e-03 -1.9633253217604153e-03 6.8105779161336368e-03  -2.4068747776504911e-03 -2.0028974832392221e-03 1.0050578293877968e-02  -2.2055278957797035e-03 -1.7878045903588176e-03 4.3202149935485630e-03  -1.4902448398710008e-03 -4.7711311360436612e-03 -1.1666925682467312e-02  1.7978743651933138e-02 2.1178506469844969e-03 -1.7324833228157161e-02  2.9233619638781974e-02 -1.0623213431685801e-03 -3.6156368247808858e-02  -1.0556477692366495e-03 -8.5022607883836563e-03 -4.4260302104786001e-02  1.8360404707523485e-02 6.3413985967724204e-03 -1.3298945645870676e-02  3.6375588475651677e-03 5.2062964445879724e-03 -3.0631272723818780e-02  5.7805945004167948e-03 6.2996449876860415e-03 -2.5113046530594107e-02  -3.7840704810062540e-03 -2.2015544357346165e-03 -3.1968660617232955e-02  7.3113754654023002e-03 3.3378923607045403e-03 -3.4809707103589597e-02  6.1598867948990590e-04 9.2708047630561197e-04 -2.4110898665263808e-02  -5.8097373483706194e-03 -8.3460938556236056e-03 -1.1007839308869817e-02  -3.4362516365280728e-03 -5.2779237402888471e-04 -1.7957085005204699e-02  -4.1473939634767316e-03 -3.3458134416259580e-03 -1.6291033784797779e-02  -1.8145794050291521e-03 5.3394133330566468e-03 -2.0645940368555528e-02  -8.4756887623002389e-03 -7.3078359836421707e-03 -2.2344006231882742e-02  5.0096168327116294e-03 5.3750731348418100e-04 -4.2018826662011989e-02  3.0994781673816443e-03 8.3083653203244040e-04 -4.0403641405566085e-02  -3.3578117259870769e-03 -5.0647767067964851e-03 -2.4390676364197620e-02  7.5385440144626380e-03 -5.0764201446990304e-03 -3.8608002421608438e-02  4.6499710877877399e-03 2.0200081768757820e-03 -3.0897047004237888e-02  2.3964107016795841e-03 -8.2892282375081356e-03 -2.3302555618175128e-02  -2.6801290613513167e-03 -1.6350575794482045e-02 -3.2780698343711313e-02  8.3998548484444831e-03 -1.0551585067607730e-04 -4.5077216635203657e-02  -3.0942398467266739e-02 2.5969756917886781e-02 2.9796837062957805e-02  -1.8241715317357420e-02 1.5123238215474450e-02 1.7340974163265205e-02  -2.2272851519298247e-02 1.7908252776254272e-02 1.8107022219665068e-02  1.4845861105729761e-03 4.3014503411537269e-03 -2.5644909837354273e-02  -1.7175012501993703e-03 -3.0991273287690950e-03 2.0770211609836511e-02  -1.4839403448212586e-03 -2.4783956394321292e-03 1.3854186128685320e-02  -2.1083806719842586e-03 -2.6946267030753912e-03 1.6717700612216526e-02  -1.3105955200488125e-03 -2.4144452674134424e-03 1.7989678888300203e-02  -6.8596257959600945e-04 -1.3570194352703839e-02 -3.7244290135342042e-02  6.0904756465403651e-02 -5.4839813945240561e-02 -2.1588761580056879e-02  2.0029465212176575e-02 -9.8341664295845316e-02 -2.0953046304886612e-02  7.4676341792404774e-02 -5.8807539992288480e-02 -2.9221550488303018e-02  6.6290582265863124e-02 -5.6219857095754049e-02 -7.2554671616308158e-02  1.4943371517227664e-03 -1.2207094663153969e-02 -5.7562673215959259e-03  1.2625773220053252e-02 -9.6033560245895877e-03 -1.4508608931302387e-02  -3.4926835924031069e-03 -6.0824245251912031e-04 -1.0225830398604301e-02  -2.2386563455988884e-03 -1.0329304977880305e-03 -1.3293369729193767e-02  1.1495593777671078e-03 -1.2137631506529561e-03 -2.6359887423073512e-02  -1.2950157994088976e-03 6.7515383277672893e-04 -1.7127525321667524e-02  9.0305250280000998e-03 7.5865731301329734e-05 -1.6264258174145590e-02  1.4720877488890213e-02 -9.4199000127652057e-03 -2.4277503295048727e-02  -4.2423246234358412e-02 -3.0431482912356974e-02 2.0330397725818000e-02  -2.7334265467636544e-02 -1.9130863267868333e-02 2.0152397912935049e-02  -2.4107364288014365e-02 -1.3121906794946034e-02 1.6039003996366395e-02  1.4517459006129592e-03 2.5025868834937545e-03 -3.0007350692407009e-02  -2.9926136603593292e-03 2.0436435931511327e-03 -2.9764323995454981e-02  2.5462315937451042e-03 -1.8655959761209552e-03 -3.9941046058229047e-02  -3.9894496302549494e-04 -9.1857497857218511e-04 -2.4291291945886067e-02  1.9629880368651682e-03 -2.6173580140171292e-03 -2.8650124572079078e-02  -1.9420616947115757e-03 3.0194045424648333e-03 -2.9171923973847231e-02  1.3951048047409486e-04 9.7589650936914525e-04 -3.5802806668461973e-02  1.5581102293329753e-03 -5.8915481891398159e-04 -3.4168532486419247e-02  -2.9150670096653288e-03 2.0915029364823603e-03 -2.0452464954355834e-02  -7.6676504866519393e-04 -1.0104983234064059e-03 -3.7964495602959267e-02  -1.3105560256486211e-03 4.1780135532977925e-04 -2.7043002979126624e-02  -1.6230830082655825e-02 1.7011458293787855e-02 1.7755254600133316e-02  -1.1754328438279496e-02 1.1673954160717643e-02 1.1539083723990384e-02  5.8554408928072985e-03 -1.9679331279452695e-02 -4.2996855545690271e-02  -1.4516558988058044e-02 -5.2337522310497908e-03 -2.9692204416084722e-02  3.3632721692296026e-03 -1.1315514031459918e-03 -4.0574645780814843e-02  -4.6755208228084179e-04 7.1771746607101976e-04 -2.5823549457820078e-02  2.6562948235644068e-03 -1.5634391346730568e-03 -3.6506942409459842e-02  -1.4677446630216990e-02 1.4190724664896667e-02 1.2204491230127578e-02  -1.0231388944345946e-02 1.0558655791809120e-02 6.9224845148162552e-03  -5.0115044132953962e-05 3.0190022284392664e-03 -2.3566786271354966e-02  -3.8887832540408151e-03 -3.0063699142049457e-03 -2.5366213327290995e-02  -3.7762595234866890e-03 1.9134070134399534e-03 -1.7426077748903146e-02  -4.3753398003835934e-03 -2.1591052302853031e-03 -2.5775301658331810e-02  -2.8853353037661639e-03 -7.8428457125640958e-04 -2.9730850814567358e-02  -7.4890326386574673e-04 1.1611899981370493e-04 -1.5307545038752295e-02  -7.5863823983822562e-04 -1.2762135592171231e-04 -1.6361827548933110e-02  -2.0888068740051993e-03 -2.2417633554024219e-04 -1.3923993611673867e-02  -2.7486514328164649e-03 1.8880813174453922e-03 -2.2396835148919728e-02  2.2300685880849722e-03 -3.5954486813699095e-03 -4.0947530590824066e-02  2.7743468867665834e-03 -1.8648022197018954e-03 -4.3467692854032979e-02  1.6949373754442350e-03 5.7802713985656787e-03 -3.1001135825072228e-02  -7.4397903971816956e-05 7.9087076496809142e-04 -2.7770236960888921e-02  6.6648145301510852e-03 -1.4421496350906207e-03 -4.4206952013282154e-02  4.6931171923820418e-03 -3.8579637183309896e-03 -4.6606998270943466e-02  -1.3852330663442311e-02 -3.2603507696304969e-03 8.1023953657586821e-03  -9.5785634644502196e-03 -2.1425235026402696e-03 1.1867149262931318e-03  -9.4805702528456704e-03 4.0745558237626810e-03 -1.9271721370475892e-02  -1.0880081793865508e-02 3.0905128415227019e-03 -1.5579972338628269e-02  -4.1079303548365032e-03 5.3714821765369304e-03 -4.0538041817657772e-02  1.3753157374513242e-03 -9.3983163899123874e-04 -3.4752845909708938e-02  2.0521860956474354e-02 -2.6664848665281769e-02 -5.4588055400378685e-02  -3.2297165197849434e-02 1.0667680800978106e-02 -1.9297497595808379e-02  -4.3232429310636485e-02 -6.0158977981695068e-02 -1.2261237147807610e-01  -2.5384883529912840e-02 3.6573511562493013e-02 -2.8256734495931309e-02  6.6507712096555024e-02 -1.0936701083454828e-01 4.3631692031777143e-02  -9.6560428430884026e-04 -5.1844034460158761e-04 -3.8207791981836124e-02  9.7396912171542321e-04 -9.6766697474447931e-04 -3.3604112699758493e-02  2.8408259867962943e-04 3.3462534852919050e-04 -3.3448502599950192e-02  -8.7856229144824341e-04 8.0094126846334238e-04 -3.4658972629131000e-02  9.9364262443946139e-04 1.8380851145756310e-03 -3.1771491595429038e-02  -4.7278554112540035e-03 4.5346037945951500e-03 -3.0081946712212388e-02  -1.7013060830826441e-05 -1.2412294591592459e-03 -3.8945644755748458e-02  8.7634771911754685e-04 1.0736719933283031e-03 -3.5629370772191089e-02  8.3688290349494092e-04 -8.8966452543796806e-04 -3.4236761252199516e-02  -3.6006819968567496e-04 -1.3024072324740617e-03 -2.4870627579128134e-02  -1.3754873331898052e-04 -3.6220356407495673e-04 -2.9791926212950078e-02  3.5920803860674120e-04 -9.5801943787433776e-04 -3.0100736869525722e-02  -1.7975704324798968e-03 1.6184716127396908e-03 -2.1702571153275414e-02  -1.8139693362765900e-03 8.9412644740027533e-04 -2.2774768097704234e-02  -7.0714144722776480e-04 2.1285029699814024e-04 -2.9518537514766061e-02  -9.8694514839289382e-04 4.3624032998039832e-04 -2.1248856574661110e-02  -5.8737148436765444e-04 2.4929863114329068e-03 -2.1811995285336335e-02  2.2668363892656561e-03 -2.4207091114793917e-03 2.5376308990364159e-02  3.6078087766916308e-03 -7.0525500948687278e-03 1.5721244697863328e-02  5.2989236253129998e-03 4.2208933358358677e-03 1.4790271513035805e-02  2.2269117951642846e-02 -8.0245443626233513e-03 1.9016761748588108e-02  7.1852209000886763e-02 -6.3556184274443303e-02 -9.5882982512832029e-04  1.1532743865665879e-01 -2.3115439057400017e-02 -6.9093265375043150e-02  -5.0185895929607739e-02 4.2416695985115022e-02 4.7998625708666955e-02  -5.1031622444586033e-02 4.5767511826295543e-02 3.0491636901852165e-02  -3.9013205437366319e-02 2.8085590503212000e-02 3.2119714118532830e-02  6.2444789699636870e-02 -3.9905213523581000e-02 -1.5037211769214048e-01  9.0892947573518929e-02 -1.4443065090042380e-02 3.5004461747159987e-02  9.0645577034606434e-02 8.3986543155587842e-03 4.0189484801313118e-02  3.6730668377486300e-02 -8.2945828912615819e-03 1.2923378389411792e-02  1.6165985884438130e-01 5.5174826688434916e-03 -3.0273447545070736e-01  1.5443023858105719e-02 -4.7159158570846398e-02 -1.6217029673691645e-02  1.7268157673682423e-03 -2.8632242170806513e-02 -4.0114211909852836e-02  5.4817131691420901e-03 3.5427852892261809e-02 -5.6149235856423740e-03  2.6787014470818535e-02 7.8134192090597975e-03 6.0675619425564695e-02  -6.1827685004176166e-04 -1.4436141157031721e-04 -1.6278582169381231e-02  -4.7789326626272629e-04 -4.1041565764559830e-05 -1.7107046807208835e-02  -1.6996928574168257e-03 -1.1670618834528040e-04 -2.7746266708239875e-02  -8.0845924811292158e-02 6.8165085627987704e-02 6.65739184