<?xml version="1.0"?>
<VTKFile type="UnstructuredGrid"  version="0.1"  >
<UnstructuredGrid>
<Piece  NumberOfPoints="857" NumberOfCells="3763">
<Points>
<DataArray  type="Float64"  NumberOfComponents="3"  format="ascii">-0.0182597916573 0.126128911972 -0.119588643312  -0.0077641364187 0.0512270443141 -0.07050477713349999  -0.0237180162221 0.16240182519 -0.053058128804  -0.107877351344 0.105669431388 -0.0502408407629  -0.0444478429854 0.116080775857 -0.00235075876117  0.0393674038351 0.112876079977 -0.0491501875222  0.0248903874308 0.0489483103156 0.000152088920004  0.0314915925264 0.114928804338 0.0218031276017  -0.0657326281071 0.0685198307037 0.0497140102088  -0.0355357266963 0.164656624198 0.0508319064975  -0.010538729839 -0.0422629192472 -0.208358153701  -0.0239527057856 0.0135364839807 -0.242119863629  -0.0194642152637 -0.0775559768081 -0.263431429863  -0.08492307364939999 -0.0108216870576 -0.280446648598  -0.08293507993220001 -0.0361198186874 -0.159778758883  -0.0240796487778 -0.0824203491211 -0.148982465267  0.0430508553982 -0.121076337993 -0.234084427357  0.0307756774127 0.0324950888753 -0.198437720537  0.00352357281372 -0.00433266581967 -0.144715368748  -0.0456651262939 0.08372022956609999 0.342343091965  -0.116630032659 0.0117083769292 0.386158525944  -0.08223126828669999 0.0577075146139 0.289406776428  -0.0511222109199 0.00205342215486 0.300772219896  -0.0125984866172 0.0267426930368 0.351842552423  0.0303636882454 0.0561947338283 0.391145974398  -0.0524924062192 0.0543583929539 0.40361738205  -0.07944945245979999 0.130002260208 0.441037595272  -0.000730989675503 0.119443200529 0.385622620583  -0.078488714993 0.137875169516 0.332541137934  0.0142801422626 0.110509291291 0.27100610733  0.0224165506661 0.08303219079970001 0.331783413887  -0.0170432701707 0.161798536777 0.30022162199  0.000811119796708 -0.0515509881079 -0.08419398218390001  0.0888616070151 -0.015075173229 -0.0776951387525  -0.0989535748959 -0.0518730916083 -0.08125374466180001  -0.0433920919895 -0.09785594791170001 0.0106235472485  -0.0488061010838 0.0295096840709 -0.0131453983486  -0.25 0.25 0.5  -0.166666666667 0.25 0.5  -0.25 0.195066730511 0.445658150344  -0.19506166517 0.25 0.445542865294  -0.0213422998786 -0.126349791884 -0.045622177422  -0.117952652276 0.0158270020038 -0.16616243124  -0.0531469397247 0.0490713231266 -0.13630309701  0.0358348339796 -0.131537660956 -0.134171053767  0.0583617314696 -0.115307979286 -0.0462360456586  0.010585160926 -0.0606908276677 0.314250290394  0.078067921102 -0.133790805936 0.331458956003  0.0206208750606 -0.104583717883 0.36723652482  0.0300164371729 -0.13569638133 0.270959883928  0.0797956883907 -0.07311873137949999 0.388136893511  0.0291880238801 -0.0850581228733 0.220644980669  0.0788302049041 -0.07555303722620001 0.284453928471  -0.0465739220381 -0.108428947628 0.305151432753  -0.056692365557 -0.0812899768353 0.234353885055  0.10282895714 0.0630551427603 -0.0452189296484  0.178613707423 0.153893724084 -0.0703043565154  0.0750898644328 0.130835875869 -0.116260357201  0.0179002508521 -0.0400723591447 0.396018892527  0.07961820065980001 -0.020668130368 0.232235535979  -0.00726175494492 -0.022667773068 0.242156982422  0.0524490773678 0.0171752162278 0.310696065426  0.0103002395481 0.0813155695796 0.107229083776  0.00225681974553 -0.008687185123560001 0.0457225777209  0.177950121638 0.25 0.0405701099774  0.151375159621 0.202163234353 -0.00268407491967  0.13042794168 0.172564610839 0.0599601529539  0.184557154775 0.16295710206 -0.00737970136106  0.0827306732535 0.011830884032 0.0299163535237  0.106673434377 0.0676268041134 0.0663062110543  0.25 0.25 0  0.25 0.177947182503 0.0435581305687  0.0251978598535 -0.0201241951436 -0.0233656335622  -0.25 -0.25 0.25  -0.175495340629 -0.25 0.295351832328  -0.25 -0.175776260788 0.294629825204  -0.164853364229 -0.189889326692 0.246240898967  0.111295968676 0.25 -0.00354384794953  0.0417815256417 0.25 0.0264120515999  0.0577150444892 0.25 -0.0418173710713  0.035034801811 0.196921139956 -0.0497792549431  -0.115254960954 0.0352221727371 -0.0357825122774  0.0360979661345 0.0743419006467 -0.130612716079  0.08110298216340001 0.0143552683294 -0.135737240314  0.0281950440258 0.110801942647 -0.38559025526  -0.000352636008756 0.154027625918 -0.45018479228  0.0220217909664 0.07910815626379999 -0.445265561342  -0.041934799403 0.09297795593740001 -0.440330862999  -0.115356497467 0.128115877509 0.0303980205208  -0.08144567906859999 0.192924261093 -0.0396481454372  -0.0503155887127 -0.140062868595 0.370642662048  0.0181560348719 -0.191118896008 0.319997102022  -0.09442232549189999 -0.0766885429621 0.347179293633  -0.10306725651 -0.0245223585516 0.261891931295  -0.0371639840305 -0.192689821124 0.258922994137  -0.08778057992460001 -0.193450272083 0.293951839209  -0.116932563484 -0.137108251452 0.278956532478  -0.0434515699744 -0.19969072938 0.340430229902  -0.016621209681 -0.143479332328 0.208528921008  -0.0799133181572 -0.177766740322 0.206858798862  -0.0340202823281 -0.07231882214550001 0.405357718468  -0.153045728803 -0.0703692808747 0.28540495038  -0.0647673308849 -0.069349065423 -0.297796696424  -0.0468406006694 -0.118580199778 -0.331259429455  -0.0636249184608 -0.122360698879 -0.235275790095  -0.137311711907 -0.115820750594 -0.279358655214  -0.25 -0.25 0.333333333333  -0.00222280388698 -0.0275516584516 -0.327156513929  0.0233143884689 -0.124395690858 -0.330935031176  -0.00544846989214 -0.0444226972759 -0.392852008343  -0.07202984392639999 -0.0450558848679 -0.379192590714  -0.128861442208 -0.0482712239027 -0.325591087341  -0.0319190612757 0.25 0.27473160228  0.0259018652141 0.196524605155 0.343851953745  -0.0424101948738 0.196461260319 0.324036180973  -0.08801463991400001 0.193724930286 0.280150324106  -0.051391992718 0.129726842046 0.244459152222  0.0793330296874 0.131078347564 0.273738384247  0.0304427426308 0.197590425611 0.258007407188  0.139736711979 -0.103549621999 0.308288753033  0.117407329381 -0.00031748006586 0.284001767635  0.17845864594 0.0137020656839 0.2717012465  0.133446916938 -0.07468281686309999 0.252671837807  0.193237304688 0.0103836003691 0.32706490159  0.108656100929 -0.016409387812 0.370573759079  0.195593327284 -0.0705924406648 0.374003827572  0.204297035933 -0.0882691517472 0.283604085445  0.15987212956 -0.0232784096152 0.211559042335  0.103109702468 -0.0715631917119 0.185957938433  0.25 -0.177950121638 0.0405701099774  0.25 -0.111295968676 -0.00354384794953  0.168315500021 -0.181550845504 -0.0129796266556  0.203061833978 -0.0839376300573 0.0201103240252  -0.123973377049 0.0421161539853 0.0831994190812  0.10652089864 0.041568480432 0.133020982146  -0.00508088478819 0.00464248098433 0.118765294552  0.0384838804603 0.0542355030775 0.219570666552  0.0556482039392 0.09942726045850001 0.165778696537  0.25 -0.25 0  0.25 -0.17904445884 -0.0421267671166  0.0085972994566 0.139411628246 0.206887423992  -0.0427397117019 0.0734880268574 0.199836358428  0.25 -0.25 0.166666666667  0.177338154858 -0.25 0.209433902167  0.178222204231 -0.25 0.126578397361  0.180748909712 -0.154124230146 0.180074676871  0.118582360446 0.0498475395143 0.233844980597  0.113276541233 0.115120351315 0.208414897323  0.068451166153 0.123325429857 0.09300038218499999  0.08695217221980001 0.18308262527 0.11987875402  0.1366494596 0.0978636816144 0.125807240605  0.0170362386853 0.165571182966 0.116205818951  -0.075325883925 -0.13042730093 -0.120773427188  -0.191016584635 -0.1764793396 -0.0778442546725  -0.102759346366 -0.20253264904 -0.07015967369080001  -0.126150563359 -0.115044787526 -0.0573479756713  -0.138729035854 -0.104583211243 -0.134180948138  -0.147993162274 -0.138949289918 -0.203295826912  -0.180331096053 -0.192031860352 -0.160557568073  -0.194399222732 -0.0846866071224 -0.148938387632  -0.11259970814 -0.078034222126 -0.193649172783  0.0326924659312 -0.122268341482 0.0296003930271  0.0215157996863 -0.180560961366 -0.0757267251611  0.0956164896488 -0.0493310950696 -0.0164182558656  0.112129375339 -0.112067811191 -0.105549775064  0.127802968025 -0.106147237122 -0.0110959038138  -0.0854129120708 -0.015297700651 0.056893799454  -0.0204317308962 -0.0795602425933 0.117458000779  -0.178222204231 0.25 0.126578397361  -0.177947182503 0.25 0.0435581305687  -0.107976816083 0.25 0.0905854563709  -0.157577678561 0.178241759539 0.0969507619739  0.25 -0.25 0.333333333333  0.25 -0.25 0.25  0.175776260788 -0.25 0.294629825204  0.25 -0.175495340629 0.295351832328  0.0932372882962 -0.0430554822087 0.0724518448114  -0.044769000262 -0.00661279587075 0.403999477625  -0.194478780031 -0.0247275307775 0.332954645157  -0.173761367798 -0.0806607827544 0.396263659  -0.137637495995 0.00523930834606 0.315887242556  0.0864742994308 -0.139340251684 0.176064118743  0.105438224971 -0.136641919613 0.253711819649  0.0308670303835 -0.25 -0.136809572586  0.0367561832589 -0.25 -0.219583441074  0.0925811678171 -0.20055809617 -0.19996842742  0.0127155454829 -0.193433105946 -0.225977659225  0.0415658205748 -0.200880005956 0.196522325277  0.0373581312597 -0.119548290968 0.120048768818  -0.0954102815882 -0.25 0.346414074494  -0.101368582479 -0.25 0.251933327382  -0.0374909392175 -0.25 0.286229296012  0.0852289572358 0.109103307128 -0.27055695653  0.07707493752239999 0.127253636718 -0.199824258685  0.128097131848 0.07648140937090001 -0.209757223725  0.154867321253 0.13628205657 -0.212952241302  0.08678253740069999 0.189277544618 -0.274375885725  0.127699971199 0.0803090333939 -0.326344817877  0.0577741526067 0.0601542405784 -0.31936660409  0.0525139421225 0.129102528095 -0.326874881983  0.0251371748745 0.175572559237 -0.261228203773  0.0199144631624 0.0927290171385 -0.265960127115  -0.148952946067 -0.121583275497 -0.374568909407  -0.25 0.177950121638 0.0405701099774  -0.25 0.111295968676 -0.00354384794953  -0.175531774759 0.135734900832 0.0562076568604  -0.178730383515 0.191659659147 -0.00562386959791  -0.0244714934379 -0.108516678214 -0.387223660946  -0.09279609471560001 -0.170035287738 -0.445968538523  -0.0281062982976 -0.0
[...]
<PointData  Vectors="f_104"> 
<DataArray  type="Float64"  Name="f_104"  NumberOfComponents="3" format="ascii">4.1178532853090845e-05 -9.2404088715714806e-06 1.1777059497997684e-01  1.2048879426205072e-04 -8.8982786082246784e-06 1.2953310264475990e-01  3.4427072172933761e-05 -8.1495586581685885e-05 1.0797930118340059e-01  1.5163672474807199e-04 -1.7703765344967627e-04 1.1462857631457163e-01  -4.3745574327519017e-05 -1.7205303241740565e-04 1.1958932821115785e-01  -1.8913205381350089e-04 -3.2420703599905603e-04 1.2032026461631513e-01  -1.1373704235362299e-04 -5.8316822155070378e-05 1.2953324888525491e-01  -1.5776912906015849e-04 -2.5213711350872644e-04 1.2016565225605357e-01  1.3428970847591200e-04 -2.1746312863567190e-04 1.2519227944677580e-01  1.1406098195619951e-04 -1.1996381566427126e-04 1.0720279568117520e-01  -1.1610013817269276e-04 5.1318497336264679e-05 1.2973155750313695e-01  1.1922638057678311e-05 1.6541777437598774e-05 1.3049419647013535e-01  2.1830276874863500e-05 9.3091049395177354e-05 1.2577501395942975e-01  4.9968099169330225e-05 -2.4446528505915802e-05 1.2478259312449919e-01  1.7440809087349468e-04 1.6413987721123637e-04 1.2475919942667341e-01  3.1381016039698977e-06 5.2813500976734771e-05 1.2555572541913246e-01  -5.9304540309313756e-05 1.2132394037866534e-04 1.1727926322501864e-01  -2.3008234028900660e-05 -1.2849346070100900e-04 1.2967802714472981e-01  -2.6026379967420108e-05 -2.6647177006847917e-05 1.3152537575207221e-01  -1.7909025807149139e-03 3.1287107647224128e-03 1.2552325225715530e-01  -3.8313324577029834e-03 -1.9117947917205128e-05 1.2300572225556383e-01  -9.5768574432114032e-04 7.2510937494270160e-04 1.2540002444459480e-01  -1.3482428170148923e-03 6.1955310727003477e-04 1.3026580371470847e-01  -8.6445791779615169e-04 -8.3092970824259088e-05 1.2984260601337638e-01  3.4342386640640633e-03 2.2983090582652166e-03 1.2524621215041323e-01  -3.4966135023272861e-03 2.9488494023828336e-03 1.2447913289209336e-01  -6.1025505380738554e-03 8.8720297149890871e-03 1.1997475953719131e-01  -7.1781855800316467e-04 5.4659591343269179e-03 1.1934979987266654e-01  -1.3626813707966869e-03 1.0410331420277925e-03 1.1234968361178566e-01  4.6197519881080119e-05 2.9124730679151007e-04 1.2127874807987614e-01  7.5615322164984496e-05 1.6959408483170359e-03 1.2596214518569729e-01  -1.7622179080214320e-04 -5.1922238788706715e-04 1.0809309036573614e-01  -1.0894087797818707e-04 6.1955096450384191e-05 1.2948855924149780e-01  -1.4614719994214954e-04 1.5220266435465253e-04 1.2479475737159006e-01  1.5367414185474623e-04 1.0576622583838475e-04 1.2136052962879118e-01  2.7820906296991543e-04 1.7936657196450937e-04 1.2281570654224340e-01  4.8276842860014386e-06 1.1033101066765592e-04 1.2958765059930541e-01  -7.8764033760164668e-03 6.5877290909362174e-03 1.4569614519611782e-01  -4.9181676845988327e-03 7.3781230005083402e-04 1.3477262976313131e-01  -6.3882329628115976e-03 7.6920094471291858e-03 4.2486515390824459e-02  -5.4253497325912978e-03 4.0883579767260524e-03 4.8340143035265716e-02  2.4944693603540973e-04 1.5198551673357917e-04 1.1816347774188432e-01  2.5366277611933865e-04 -1.5199953343902672e-04 1.1893041272802614e-01  -6.7827480180599384e-05 -8.4045942801764528e-05 1.2748237061006140e-01  -9.8751231851396321e-05 8.6007181853901721e-05 1.1580873609491223e-01  -1.4939275394004349e-04 -1.0522008047306080e-04 1.1884244792097494e-01  1.3320394882309329e-04 -1.5793412891365395e-03 1.2785657838369494e-01  1.6127037799159199e-03 -1.9305312001418095e-03 1.1254672635660799e-01  2.2287085980777100e-04 -5.4527683961175617e-03 1.2055212341952809e-01  1.9210848453681152e-04 -3.3915648785930289e-04 1.1614178421760817e-01  5.5381198110229894e-03 -4.4875721901824440e-03 1.1857967171963220e-01  -1.1044823956197723e-04 3.5876931054931152e-04 1.2757742010732318e-01  1.1287968854015822e-03 -4.4466804687888424e-04 1.2229942513450950e-01  -1.8594485090239941e-04 -1.0219169869220251e-03 1.2256165128030033e-01  4.7692575910584487e-04 5.6586332516605867e-05 1.2528584144441754e-01  -9.6011949895279905e-05 -1.9563101149721812e-04 1.1975949184110883e-01  1.3857416321423062e-05 -1.2046864277382229e-04 9.3163780304665836e-02  -2.2684366518217500e-04 -2.0452791861370019e-04 1.1338498694305281e-01  1.2288062023360080e-03 -1.8638410414993389e-03 1.2746288425524088e-01  8.6748043271929053e-05 -1.0352450738485271e-04 1.2858873567497217e-01  -1.9861468119589855e-04 -4.8654884129881057e-04 1.3569201739980843e-01  9.8051114762962520e-04 4.0941310643950854e-04 1.3097211814342499e-01  -9.2251334576720002e-05 -4.2915725354580528e-04 1.2764845095081137e-01  1.2994685455511244e-04 1.3419833061062563e-04 1.3249421624720262e-01  -2.5051093371976211e-04 -2.0487008452299934e-04 7.0245122551915687e-02  1.0930622502011978e-04 1.0646046389181637e-04 8.6647667617752347e-02  -2.9229639531921188e-04 -1.1428545667528070e-04 9.7073266965924429e-02  -2.3368232073374420e-04 -1.7405608741936039e-04 8.9531062317699223e-02  -2.5966311503831550e-04 -1.5714566633481613e-04 1.2599708507316765e-01  -3.5793278516128960e-04 -3.2603847982695059e-04 1.2015817135994894e-01  -2.1602265366281502e-04 -1.5641283789870995e-04 7.0430550853070484e-02  -2.3657273523611426e-04 -1.7924732606773260e-04 7.0235207336842478e-02  1.8862000177784674e-05 -1.7052165055125531e-04 1.3059956059886174e-01  -1.3157531525728108e-05 5.0184269602577635e-05 6.7249097940089986e-02  -5.0588980709004847e-04 -4.4914178453648641e-04 6.3911496489665182e-02  -3.9739371070775952e-04 -3.5066964002135602e-04 6.5203006271187983e-02  2.6888066176017182e-04 2.4655328401451329e-04 8.7025881494935980e-02  -1.1329764062601064e-04 -1.8822945231734757e-04 7.0591554672697412e-02  -7.8928233892474914e-05 -1.7660849571409138e-04 7.0429974347507363e-02  -6.0179811101649821e-05 -1.2259359813160333e-04 7.0770800232013875e-02  -4.3199147907261584e-04 -2.2429815260471264e-04 9.4826256483999713e-02  2.2241445254075274e-04 -5.6072800628810050e-05 1.1924365485499205e-01  -4.1272448565432154e-05 -1.8588224438689622e-04 1.2621220614964060e-01  -2.4617506663777132e-04 -6.7757595359549782e-05 1.2552073982496512e-01  -2.4642703716692441e-05 -9.4759736737649056e-05 1.2008042993841597e-01  -2.4121576490059928e-07 -5.9564196297951920e-05 1.1035340206704600e-01  5.1675245182381097e-07 -3.1124850060086858e-05 1.2542844720523144e-01  5.1429381138281119e-06 -3.9883536987553311e-05 1.2243569225676335e-01  2.1955547612680735e-04 -2.4809099264218732e-04 1.0942066675779587e-01  1.8561003299179965e-04 3.9402921189217341e-05 9.5346242665645176e-02  -2.3130741657494814e-03 -3.3619509702761769e-03 1.1532653751196476e-01  1.0253722144292302e-04 1.2384987120961930e-04 9.5345313146485394e-02  -2.4458335022590934e-03 -2.7741493237081341e-03 1.2041613920956339e-01  2.9463646868466392e-04 -5.1244081669053461e-04 1.2396045561489639e-01  -4.0153654188912854e-04 7.7009012081303554e-04 9.4850987801073372e-02  -4.5522688890887206e-04 6.6055501497438063e-04 9.4376699673749967e-02  -2.2027962783952934e-04 -9.7593006498214419e-04 1.0706652769984518e-01  -1.3425900704785924e-03 -1.2572899564784203e-03 9.1269439194422861e-02  -2.7969463595476420e-04 5.5741001010980204e-04 1.1550634036526579e-01  3.7444519727015697e-04 4.9982726739884070e-04 1.0024831249907548e-01  -2.5664838394349699e-03 -5.4273170933755617e-03 1.2266252748520183e-01  2.0653858854304485e-04 -4.7306025195814117e-04 1.0805797097118992e-01  6.8774378377623900e-05 6.8081563488731486e-06 1.2376818405466761e-01  5.3936480515009157e-05 3.0976528274300304e-05 1.1769290854424598e-01  8.2546078742157575e-05 2.7669374469995752e-04 1.1584248810636553e-01  6.9757464062991596e-05 1.0121145837104827e-04 1.0709936700676838e-01  -1.1749268162022011e-03 -1.2012542456532960e-03 6.1544573828561565e-02  1.1468819043758637e-05 9.4177680401089450e-05 1.3020909256022695e-01  -4.0708540615823972e-07 6.7466881985943366e-05 1.1756682338123449e-01  3.1747873097076848e-05 -3.3783031185332081e-06 1.2925970326011860e-01  7.7926731437949040e-05 1.1729849643662861e-04 1.2508058066727562e-01  9.1814278847226883e-05 3.2219640046491472e-05 1.1552191163397670e-01  6.2399243127058638e-04 6.3505149672922164e-04 6.3284679504689814e-02  9.2801825486373457e-04 7.6584535727701453e-04 9.1934522767696661e-02  -7.1761430077565470e-04 2.4387006304813423e-03 8.6103010575525579e-02  -2.6829463869729582e-04 -1.2999788249872665e-04 9.2228921164364264e-02  2.4527238250543579e-04 7.9832822278377797e-05 1.1573859269464871e-01  6.0683505456965371e-04 7.2184351046541951e-04 1.1214182232350517e-01  -3.8572071990806842e-04 -2.6131399060667665e-04 9.4153813747157589e-02  6.7636152755769371e-04 -3.8090822173134260e-04 1.0833060318059153e-01  5.9882514098263701e-04 1.0486802063008670e-05 1.2004336588665729e-01  -7.4524392224869335e-04 2.2584843768720645e-04 1.0216315392559472e-01  -5.9102791691138042e-04 -1.4820173533679903e-04 1.1419785792057797e-01  1.5816752906116622e-03 -1.6422318527719435e-04 9.3639833852723134e-02  3.4521018806846896e-03 -2.5338943517808321e-04 1.2151739048262912e-01  1.7442871673928554e-03 -2.9177932069016374e-03 9.3188218924121130e-02  -4.3863324120221497e-05 -4.5592654855460750e-04 8.8478678023545435e-02  -3.1193137788748432e-04 -2.4711499347920676e-05 1.0957951505727374e-01  -4.3854361990775301e-04 3.7484984613235213e-04 1.2023277607967769e-01  -1.7217166128408287e-04 2.1599380601353252e-04 7.0207073133188816e-02  -1.7097107439050411e-04 1.7538467707194357e-04 7.0488309929126247e-02  -3.2364316917635991e-04 2.0571215803071499e-04 8.9354649323149890e-02  -5.1667514472978134e-05 3.7876855240768169e-04 9.1298030331120036e-02  3.3696880741458407e-04 -2.8562429391163337e-04 1.1736087701832207e-01  -2.4981497641319526e-04 -5.7538268401867975e-05 1.2086743631898360e-01  2.0843443398264183e-04 -2.9565936631848432e-04 1.3199781671890615e-01  -7.9997266147693416e-05 -3.7246561504304573e-04 1.3022308178445427e-01  -3.5518421497835904e-04 -3.0102952722149294e-04 1.2295524749242898e-01  -1.8237815585802272e-04 2.3827586749677819e-04 7.0439994315533938e-02  -1.1533942762596466e-04 2.0917944509054050e-04 7.0658421646694655e-02  -3.7677140769052229e-05 -1.0119909456740183e-05 1.1549805567511992e-01  -4.8946043266747148e-05 -4.4519628186519386e-04 1.2722739017799542e-01  -2.1784373499433575e-04 2.5773916414960655e-04 6.9139637618843494e-02  -2.6134962261020479e-04 1.6669232897232637e-04 6.8498781674709741e-02  -2.9933957404369135e-04 2.3580326233056179e-04 6.9546366163953419e-02  -2.4804902982786568e-04 3.2782058466555804e-04 9.1629199632594777e-02  -4.4307454879140230e-04 -4.2750964592847554e-04 1.1807032230924260e-01  5.4888329118274992e-05 -7.8139659411457531e-05 1.1208516180082315e-01  7.2998595220825788e-05 -3.2488792899529345e-04 1.1686329971608396e-01  -3.9810321832714062e-04 -3.7543468236841498e-04 9.7845553263696164e-02  -3.2580084616800026e-04 -3.8548830318386150e-04 1.1044249674897838e-01  -1.0092747193063033e-04 -6.9444748366964107e-04 1.0709305183000671e-01  2.4629444355421309e-04 1.5306257487267055e-04 1.1376450046522341e-01  -8.7080078613699168e-05 1.0073778004978333e-04 8.7363106156711376e-02  2.0400888487910043e-04 3.0041185044767801e-05 9.1341098628411860e-02  6.9016900976362356e-05 3.2735297868210383e-04 1.0869824610746795e-01  1.1662598922251166e-04 1.1597709845367825e-04 1.0806176497877010e-01  1.8922978884672805e-04 2.2194090204852090e-04 1.0124783118325119e-01  6.5078940349280677e-05 -4.4573538167355381e-05 8.6280096720739066e-02  2.0344415505037418e-04 2.2905019070875349e-04 9.4905575871066308e-02  1.2759576083057832e-04 -2.0741879881084795e-05 1.1689403916264106e-01  -2.2686185910296311e-04 2.1609546503122847e-04 1.1857244076195811e-01  -3.2546097169403772e-05 2.6033653617157546e-04 1.0193117345644311e-01  -3.0694021604774362e-04 2.4355378509095934e-04 1.2263007660705048e-01  -2.1734777499503053e-04 7.8851750478658176e-05 1.1240057250670844e-01  -2.3961951022157950e-04 3.8501889475843465e-04 1.1019062285049140e-01  2.5569421536722828e-04 3.5086631864473513e-04 1.2531277267442703e-01  1.3565911067235011e-04 2.2814176615332588e-04 1.2675661212887712e-01  2.2086038233167098e-04 -2.1733146897534217e-04 6.9560604884480112e-02  1.8792054016330333e-04 -2.3717221494620958e-04 7.0201685924855303e-02  2.4010862013053812e-04 -2.4290193820227914e-04 6.9921968415957117e-02  2.7070835576925806e-04 -3.2158217440103528e-04 9.1668007061789930e-02  1.8705125669944044e-04 -3.9876306405816443e-04 6.3924017902637603e-02  -2.6580116333958722e-04 2.5444296284085632e-04 6.7500918595552545e-02  1.1778507049577669e-04 -4.7043884569266065e-04 6.5221621397386506e-02  1.0352078477609631e-04 -1.0814526062422854e-04 6.5052456230957068e-02  -2.5934566757338607e-04 3.3905740617792325e-04 1.2352482042104676e-01  -3.7627642111492865e-03 7.9913348488764040e-04 1.2966084418246163e-01  -1.9694251445227682e-03 -9.1662262243271796e-04 9.1242621707758070e-02  -3.2419955056094177e-03 -3.2639813598593151e-03 1.0353339307246306e-01  -4.2672218410196310e-04 2.6369836436470907e-04 1.1598067243073043e-01  -2.8116324926103116e-04 3.7035180798185107e-04 1.0976945481596259e-01  4.2112555870861811e-05 2.5477286222179142e-04 1.1002068106142526e-01  -2.9217643348653198e-05 1.2957073773303413e-04 7.1090174147259322e-02  -3.0172002574543679e-05 1.4328189171118830e-04 7.1328626681299676e-02  -1.6443543132727464e-04 2.0104947816410368e-04 9.2476210611280918e-02  -4.6933595716914172e-05 1.4831425774981122e-04 9.6895804122299575e-02  -9.4845557252129475e-06 4.7422513373761310e-04 9.2512415249858523e-02  -3.1783382475441060e-04 2.4926714292233815e-04 1.1825671119591875e-01  -5.7666997788758387e-04 -2.0766253488617619e-03 5.6867511751700260e-02  -1.5209873330604236e-04 4.1524539167290061e-04 6.7074069123817026e-02  -3.8392855853008136e-04 4.5957616385631000e-05 6.3272904192779603e-02  -8.0092071334159139e-05 -1.2568433203287148e-04 1.1619858533531448e-01  -6.3680458570285165e-05 -1.4779768742749079e-04 1.1381761196256705e-01  -9.9702187665689590e-05 -3.1696080007320230e-05 1.1395753903524093e-01  -1.1305649296022242e-04 -2.6330753683973488e-05 1.0066438310129062e-01  -7.4709679676739389e-05 -6.9687727533316332e-05 9.6658325515789872e-02  -1.1980616540918529e-04 -7.0910739618831550e-05 1.1323591656667645e-01  -5.3735080923746240e-05 -8.7160543587081352e-05 1.2553383597615694e-01  -6.0522934640068005e-05 -1.8119165217309127e-05 1.1518003203383109e-01  -2.1392162515398279e-05 -1.3062010288325025e-04 1.0327472653345393e-01  -1.2377347176540622e-05 -5.7797480317309054e-05 1.2372858866541844e-01  4.3632078500498743e-05 6.8414206508600950e-05 1.0402957664491651e-01  1.8776896884814965e-04 -2.6162998684738304e-04 7.0238179735312350e-02  1.3462382955457412e-04 -1.8530178288092862e-04 7.0434205485190596e-02  2.8636748867401596e-04 5.7506801489751996e-05 9.5269512811781434e-02  1.3967770891676836e-04 4.9015415713115872e-05 8.6320041604142736e-02  -2.6800571749304599e-05 5.0144658449054286e-05 1.2084709950051456e-01  2.7998847337445985e-05 3.0826200641481253e-05 1.0201067151825913e-01  8.4821221768537355e-08 2.3453473184307696e-05 1.2506265283493198e-01  1.4720435002429189e-04 -2.3043068093152853e-04 7.0428770727769804e-02  1.1549004965965996e-04 -2.0645885010427329e-04 7.0675405431735297e-02  -2.9806958979838839e-04 -1.1638991922690088e-04 1.0774987198502618e-01  -1.0799645045773024e-04 7.0379846350815140e-05 9.7382054846730765e-02  -1.0254956121625222e-04 3.1454467225005430e-05 1.0394441284497014e-01  -6.5501687243147666e-05 6.3069508914128519e-05 1.0117450699909775e-01  -3.2375456983253601e-05 1.6890207911854382e-04 1.2444628880450614e-01  1.1301848999625623e-05 2.2254355217967407e-05 7.1748962768313371e-02  6.9193906144676539e-06 3.2172512212008745e-05 7.1756726753821290e-02  3.1905419737586953e-05 7.4583588703620900e-05 7.1576745624025620e-02  1.6092907739621396e-05 2.5415556001276893e-05 9.6791339297947754e-02  -5.5916592430475904e-05 2.0847030864541847e-06 1.2603144306614789e-01  -2.9756490008558609e-05 5.5392428645319218e-05 1.2662220890707915e-01  -7.2927938794093870e-05 -2.5461208924787410e-04 1.1450469775372167e-01  -1.6333680311470886e-04 -2.6259550269259877e-05 1.1981405461525736e-01  -6.5477442444284643e-05 -1.5222610675224072e-04 1.2203764862280291e-01  -6.2044580623633446e-05 -9.0107675221625747e-05 1.1833190582069276e-01  2.2057768154921598e-04 2.2898392417080169e-04 7.0221348602148154e-02  1.4434463697857010e-04 1.8271586208847782e-04 7.0514864703340605e-02  1.0512636843936625e-04 1.0051643626108887e-04 8.6795061398511619e-02  2.8497446105005313e-04 9.8458382549873816e-05 9.4320600453232761e-02  1.8185640514068428e-04 -1.4524210004809236e-04 1.1293843084308487e-01  1.6107024668033236e-04 -2.1580546179373559e-04 1.1636397916358512e-01  5.3915315408808344e-04 2.6507356948348684e-04 1.2753790537626630e-01  5.6819187554882117e-04 2.7302951953301716e-05 1.1972242426764712e-01  -5.9594048675494840e-04 -5.4597930817115714e-04 1.1179671066274895e-01  -1.1946055802463889e-04 1.1851415635625085e-03 1.1305842030610729e-01  -3.0224571046126962e-03 3.4208053271856903e-03 1.1544759098257171e-01  9.3953056263419823e-06 -1.3027502718106869e-05 1.2844959185574950e-01  4.2929824196331276e-05 2.2649481487395906e-05 1.2415206595577220e-01  7.7691429640094577e-05 -3.1119356002018437e-05 1.1900285139117825e-01  -4.5354595927058554e-05 -1.2580751543155526e-05 1.3008667993721590e-01  3.4493711003607603e-05 -5.5925565247474428e-05 1.2115401893327914e-01  6.1570957352454292e-05 -7.8393724309723601e-05 1.2212775643029597e-01  6.5359127473895001e-05 -3.3074303542163907e-05 1.2764994870330770e-01  -9.6516576090929567e-05 -1.1480595512778763e-05 1.1793288619103365e-01  -5.5094190523251646e-05 -6.8151262777053630e-06 1.1863912481754905e-01  3.4890341003320612e-05 -6.5840093536899671e-06 9.4009320257564269e-02  -9.4750436537661538e-06 -4.0790529419402321e-05 1.0512973634447714e-01  -2.5273270813676033e-05 -1.9114102689231362e-05 1.0677400712666495e-01  -4.7545680730463209e-05 -2.0242023042636999e-05 8.9236514131931913e-02  -6.2971958730485115e-05 -6.7090669778919809e-05 9.5975370419140477e-02  -6.7723463826030835e-05 -1.6993388676709041e-04 1.0497896093536184e-01  -1.4357632657197169e-04 4.3500871286058289e-05 9.6059606706753536e-02  -1.0832771040791933e-04 -1.1907238748128213e-04 9.3972385006057993e-02  2.9868306178869287e-04 -2.6479855261136950e-03 8.5441487045730055e-02  1.4190504776210159e-03 -4.3671237589916622e-06 9.1194521787724275e-02  -2.5870094443814889e-04 -1.3761305884889732e-04 8.4643656557518085e-02  4.2823729027091483e-03 -5.5421287343963071e-03 1.1086452143040039e-01  -8.4173401129951971e-03 -5.0264367927885870e-03 1.2227298527473779e-01  -6.2516675559898538e-03 -7.7855941922722726e-03 1.2404501241871332e-01  2.5475807505846601e-04 -1.1098523460387780e-04 6.8416874954138646e-02  -2.0139961489471219e-06 -1.8910548161694035e-04 6.6913138872273320e-02  2.0506282269106273e-04 -2.2060664215802861e-04 6.9111915273414204e-02  -3.6036829058467304e-04 -1.8300718597995421e-04 8.9317642879779433e-02  2.1624444922836213e-03 -7.4052268506253982e-03 1.2008518155958615e-01  5.0660239914099758e-04 -1.1771802682961720e-02 1.1525004153943763e-01  1.1429723165089670e-03 -2.5292788590275572e-03 9.6398019322033235e-02  -2.0684512096912381e-03 -9.8393757996201509e-04 8.6279448370646786e-02  2.0229501906905839e-03 1.9676609363209561e-03 1.1628308640938845e-01  3.6133129691290375e-03 3.0329083774147977e-03 1.1468042900197802e-01  4.1690419391778024e-03 3.3459234403253909e-03 1.0595949014916310e-01  -1.1777470535771034e-05 9.2648328397926260e-04 1.0092543270204926e-01  1.1362696884079056e-05 2.4537426268769362e-05 7.1787332246621802e-02  -3.4060175747292476e-06 2.1745125051019316e-05 7.1792165679974970e-02  1.3571976588397052e-05 7.3383130873266128e-06 1.0388350665061448e-01  -5.8730653564758053e-05 -9.4496811487426705e-05 6.7451682114513634e-02  -3.1077272442057698e-04 4.7230408478727149e-04 6.5448856044230924e-02  3.6512730702610845e-04 1.9481032067388060e-05 8.7296437440664065e-02  -6.4093518548830961e-05 7.6584454989521371e-05 1.273928