<?xml version="1.0"?>
<VTKFile type="UnstructuredGrid"  version="0.1"  >
<UnstructuredGrid>
<Piece  NumberOfPoints="857" NumberOfCells="3763">
<Points>
<DataArray  type="Float64"  NumberOfComponents="3"  format="ascii">-0.0182597916573 0.126128911972 -0.119588643312  -0.0077641364187 0.0512270443141 -0.07050477713349999  -0.0237180162221 0.16240182519 -0.053058128804  -0.107877351344 0.105669431388 -0.0502408407629  -0.0444478429854 0.116080775857 -0.00235075876117  0.0393674038351 0.112876079977 -0.0491501875222  0.0248903874308 0.0489483103156 0.000152088920004  0.0314915925264 0.114928804338 0.0218031276017  -0.0657326281071 0.0685198307037 0.0497140102088  -0.0355357266963 0.164656624198 0.0508319064975  -0.010538729839 -0.0422629192472 -0.208358153701  -0.0239527057856 0.0135364839807 -0.242119863629  -0.0194642152637 -0.0775559768081 -0.263431429863  -0.08492307364939999 -0.0108216870576 -0.280446648598  -0.08293507993220001 -0.0361198186874 -0.159778758883  -0.0240796487778 -0.0824203491211 -0.148982465267  0.0430508553982 -0.121076337993 -0.234084427357  0.0307756774127 0.0324950888753 -0.198437720537  0.00352357281372 -0.00433266581967 -0.144715368748  -0.0456651262939 0.08372022956609999 0.342343091965  -0.116630032659 0.0117083769292 0.386158525944  -0.08223126828669999 0.0577075146139 0.289406776428  -0.0511222109199 0.00205342215486 0.300772219896  -0.0125984866172 0.0267426930368 0.351842552423  0.0303636882454 0.0561947338283 0.391145974398  -0.0524924062192 0.0543583929539 0.40361738205  -0.07944945245979999 0.130002260208 0.441037595272  -0.000730989675503 0.119443200529 0.385622620583  -0.078488714993 0.137875169516 0.332541137934  0.0142801422626 0.110509291291 0.27100610733  0.0224165506661 0.08303219079970001 0.331783413887  -0.0170432701707 0.161798536777 0.30022162199  0.000811119796708 -0.0515509881079 -0.08419398218390001  0.0888616070151 -0.015075173229 -0.0776951387525  -0.0989535748959 -0.0518730916083 -0.08125374466180001  -0.0433920919895 -0.09785594791170001 0.0106235472485  -0.0488061010838 0.0295096840709 -0.0131453983486  -0.25 0.25 0.5  -0.166666666667 0.25 0.5  -0.25 0.195066730511 0.445658150344  -0.19506166517 0.25 0.445542865294  -0.0213422998786 -0.126349791884 -0.045622177422  -0.117952652276 0.0158270020038 -0.16616243124  -0.0531469397247 0.0490713231266 -0.13630309701  0.0358348339796 -0.131537660956 -0.134171053767  0.0583617314696 -0.115307979286 -0.0462360456586  0.010585160926 -0.0606908276677 0.314250290394  0.078067921102 -0.133790805936 0.331458956003  0.0206208750606 -0.104583717883 0.36723652482  0.0300164371729 -0.13569638133 0.270959883928  0.0797956883907 -0.07311873137949999 0.388136893511  0.0291880238801 -0.0850581228733 0.220644980669  0.0788302049041 -0.07555303722620001 0.284453928471  -0.0465739220381 -0.108428947628 0.305151432753  -0.056692365557 -0.0812899768353 0.234353885055  0.10282895714 0.0630551427603 -0.0452189296484  0.178613707423 0.153893724084 -0.0703043565154  0.0750898644328 0.130835875869 -0.116260357201  0.0179002508521 -0.0400723591447 0.396018892527  0.07961820065980001 -0.020668130368 0.232235535979  -0.00726175494492 -0.022667773068 0.242156982422  0.0524490773678 0.0171752162278 0.310696065426  0.0103002395481 0.0813155695796 0.107229083776  0.00225681974553 -0.008687185123560001 0.0457225777209  0.177950121638 0.25 0.0405701099774  0.151375159621 0.202163234353 -0.00268407491967  0.13042794168 0.172564610839 0.0599601529539  0.184557154775 0.16295710206 -0.00737970136106  0.0827306732535 0.011830884032 0.0299163535237  0.106673434377 0.0676268041134 0.0663062110543  0.25 0.25 0  0.25 0.177947182503 0.0435581305687  0.0251978598535 -0.0201241951436 -0.0233656335622  -0.25 -0.25 0.25  -0.175495340629 -0.25 0.295351832328  -0.25 -0.175776260788 0.294629825204  -0.164853364229 -0.189889326692 0.246240898967  0.111295968676 0.25 -0.00354384794953  0.0417815256417 0.25 0.0264120515999  0.0577150444892 0.25 -0.0418173710713  0.035034801811 0.196921139956 -0.0497792549431  -0.115254960954 0.0352221727371 -0.0357825122774  0.0360979661345 0.0743419006467 -0.130612716079  0.08110298216340001 0.0143552683294 -0.135737240314  0.0281950440258 0.110801942647 -0.38559025526  -0.000352636008756 0.154027625918 -0.45018479228  0.0220217909664 0.07910815626379999 -0.445265561342  -0.041934799403 0.09297795593740001 -0.440330862999  -0.115356497467 0.128115877509 0.0303980205208  -0.08144567906859999 0.192924261093 -0.0396481454372  -0.0503155887127 -0.140062868595 0.370642662048  0.0181560348719 -0.191118896008 0.319997102022  -0.09442232549189999 -0.0766885429621 0.347179293633  -0.10306725651 -0.0245223585516 0.261891931295  -0.0371639840305 -0.192689821124 0.258922994137  -0.08778057992460001 -0.193450272083 0.293951839209  -0.116932563484 -0.137108251452 0.278956532478  -0.0434515699744 -0.19969072938 0.340430229902  -0.016621209681 -0.143479332328 0.208528921008  -0.0799133181572 -0.177766740322 0.206858798862  -0.0340202823281 -0.07231882214550001 0.405357718468  -0.153045728803 -0.0703692808747 0.28540495038  -0.0647673308849 -0.069349065423 -0.297796696424  -0.0468406006694 -0.118580199778 -0.331259429455  -0.0636249184608 -0.122360698879 -0.235275790095  -0.137311711907 -0.115820750594 -0.279358655214  -0.25 -0.25 0.333333333333  -0.00222280388698 -0.0275516584516 -0.327156513929  0.0233143884689 -0.124395690858 -0.330935031176  -0.00544846989214 -0.0444226972759 -0.392852008343  -0.07202984392639999 -0.0450558848679 -0.379192590714  -0.128861442208 -0.0482712239027 -0.325591087341  -0.0319190612757 0.25 0.27473160228  0.0259018652141 0.196524605155 0.343851953745  -0.0424101948738 0.196461260319 0.324036180973  -0.08801463991400001 0.193724930286 0.280150324106  -0.051391992718 0.129726842046 0.244459152222  0.0793330296874 0.131078347564 0.273738384247  0.0304427426308 0.197590425611 0.258007407188  0.139736711979 -0.103549621999 0.308288753033  0.117407329381 -0.00031748006586 0.284001767635  0.17845864594 0.0137020656839 0.2717012465  0.133446916938 -0.07468281686309999 0.252671837807  0.193237304688 0.0103836003691 0.32706490159  0.108656100929 -0.016409387812 0.370573759079  0.195593327284 -0.0705924406648 0.374003827572  0.204297035933 -0.0882691517472 0.283604085445  0.15987212956 -0.0232784096152 0.211559042335  0.103109702468 -0.0715631917119 0.185957938433  0.25 -0.177950121638 0.0405701099774  0.25 -0.111295968676 -0.00354384794953  0.168315500021 -0.181550845504 -0.0129796266556  0.203061833978 -0.0839376300573 0.0201103240252  -0.123973377049 0.0421161539853 0.0831994190812  0.10652089864 0.041568480432 0.133020982146  -0.00508088478819 0.00464248098433 0.118765294552  0.0384838804603 0.0542355030775 0.219570666552  0.0556482039392 0.09942726045850001 0.165778696537  0.25 -0.25 0  0.25 -0.17904445884 -0.0421267671166  0.0085972994566 0.139411628246 0.206887423992  -0.0427397117019 0.0734880268574 0.199836358428  0.25 -0.25 0.166666666667  0.177338154858 -0.25 0.209433902167  0.178222204231 -0.25 0.126578397361  0.180748909712 -0.154124230146 0.180074676871  0.118582360446 0.0498475395143 0.233844980597  0.113276541233 0.115120351315 0.208414897323  0.068451166153 0.123325429857 0.09300038218499999  0.08695217221980001 0.18308262527 0.11987875402  0.1366494596 0.0978636816144 0.125807240605  0.0170362386853 0.165571182966 0.116205818951  -0.075325883925 -0.13042730093 -0.120773427188  -0.191016584635 -0.1764793396 -0.0778442546725  -0.102759346366 -0.20253264904 -0.07015967369080001  -0.126150563359 -0.115044787526 -0.0573479756713  -0.138729035854 -0.104583211243 -0.134180948138  -0.147993162274 -0.138949289918 -0.203295826912  -0.180331096053 -0.192031860352 -0.160557568073  -0.194399222732 -0.0846866071224 -0.148938387632  -0.11259970814 -0.078034222126 -0.193649172783  0.0326924659312 -0.122268341482 0.0296003930271  0.0215157996863 -0.180560961366 -0.0757267251611  0.0956164896488 -0.0493310950696 -0.0164182558656  0.112129375339 -0.112067811191 -0.105549775064  0.127802968025 -0.106147237122 -0.0110959038138  -0.0854129120708 -0.015297700651 0.056893799454  -0.0204317308962 -0.0795602425933 0.117458000779  -0.178222204231 0.25 0.126578397361  -0.177947182503 0.25 0.0435581305687  -0.107976816083 0.25 0.0905854563709  -0.157577678561 0.178241759539 0.0969507619739  0.25 -0.25 0.333333333333  0.25 -0.25 0.25  0.175776260788 -0.25 0.294629825204  0.25 -0.175495340629 0.295351832328  0.0932372882962 -0.0430554822087 0.0724518448114  -0.044769000262 -0.00661279587075 0.403999477625  -0.194478780031 -0.0247275307775 0.332954645157  -0.173761367798 -0.0806607827544 0.396263659  -0.137637495995 0.00523930834606 0.315887242556  0.0864742994308 -0.139340251684 0.176064118743  0.105438224971 -0.136641919613 0.253711819649  0.0308670303835 -0.25 -0.136809572586  0.0367561832589 -0.25 -0.219583441074  0.0925811678171 -0.20055809617 -0.19996842742  0.0127155454829 -0.193433105946 -0.225977659225  0.0415658205748 -0.200880005956 0.196522325277  0.0373581312597 -0.119548290968 0.120048768818  -0.0954102815882 -0.25 0.346414074494  -0.101368582479 -0.25 0.251933327382  -0.0374909392175 -0.25 0.286229296012  0.0852289572358 0.109103307128 -0.27055695653  0.07707493752239999 0.127253636718 -0.199824258685  0.128097131848 0.07648140937090001 -0.209757223725  0.154867321253 0.13628205657 -0.212952241302  0.08678253740069999 0.189277544618 -0.274375885725  0.127699971199 0.0803090333939 -0.326344817877  0.0577741526067 0.0601542405784 -0.31936660409  0.0525139421225 0.129102528095 -0.326874881983  0.0251371748745 0.175572559237 -0.261228203773  0.0199144631624 0.0927290171385 -0.265960127115  -0.148952946067 -0.121583275497 -0.374568909407  -0.25 0.177950121638 0.0405701099774  -0.25 0.111295968676 -0.00354384794953  -0.175531774759 0.135734900832 0.0562076568604  -0.178730383515 0.191659659147 -0.00562386959791  -0.0244714934379 -0.108516678214 -0.387223660946  -0.09279609471560001 -0.170035287738 -0.445968538523  -0.0281062982976 -0.0
[...]
<PointData  Vectors="f_78"> 
<DataArray  type="Float64"  Name="f_78"  NumberOfComponents="3" format="ascii">-2.5322537373356495e-05 -3.0212287675794354e-05 -4.2042976340693683e-03  1.2739768635817301e-05 -2.8548126142327243e-07 -3.3670298636965085e-03  5.4743325235029759e-05 5.3861669875414522e-05 -3.5520154527485265e-03  1.0707233099385963e-04 -6.9639857652703687e-05 -3.4651213554517412e-03  4.3255576987982286e-05 -4.4300011142551047e-05 -4.2537737412879206e-03  -7.9468422693359771e-05 -1.1254797505946721e-05 -4.5791787640532492e-03  3.2167240866528653e-05 -3.0005516301733870e-06 -4.1318058651795986e-03  3.7932935524234281e-05 1.5549888568796321e-05 -3.7143147491065964e-03  -2.1136416978166168e-06 -2.3926227892267809e-05 -3.4229644678167095e-03  -8.5992187340650330e-05 2.1860904560264532e-05 -3.6758778151465277e-03  6.7737377690223085e-06 5.7345013534455770e-05 -3.1625926364849790e-03  -1.4045920262370688e-05 2.0416497162978618e-05 -3.7010633524274354e-03  -3.6860607567128975e-05 4.3243297990996664e-05 -3.8661314439270796e-03  -2.9643872278844757e-05 1.3945729045358904e-05 -4.3411777068558576e-03  -9.7924405070850634e-06 1.6454341894721957e-05 -2.4799667604248903e-03  -3.1852687075367859e-05 6.5073998902319454e-05 -2.7300839659847587e-03  2.3346526260602502e-05 7.2131326171092025e-05 -2.9670375900172608e-03  1.6550787935871784e-05 2.1900212637037261e-05 -3.1059522164759937e-03  8.6122115418775682e-06 -2.8536396335742535e-05 -3.1355206504381852e-03  1.9810430442293261e-05 -8.6969976886113547e-05 -4.3555937630022513e-03  3.0815056128184500e-05 -5.1946921690416562e-05 -3.6424239789318532e-03  -3.6924285549325485e-05 -1.2377595374141504e-04 -3.8825541059291555e-03  -1.5957725911629935e-04 -7.2098535867025530e-05 -3.8458092800388866e-03  -4.2686099525790107e-05 8.4314308306182524e-05 -4.6371321471419327e-03  -3.5738106256213249e-05 -2.0522433550643605e-05 -3.8468571792373576e-03  9.0306914492292641e-05 5.6482201060188422e-05 -4.2194979677999712e-03  1.8399124135634612e-04 4.4091266978455933e-05 -3.9927161283349636e-03  -3.7379192616781624e-05 -2.4338146867106293e-06 -3.6787719491020911e-03  -3.8993827752316835e-05 1.9512174069191636e-04 -3.2488154779369140e-03  -1.0532814049126927e-04 2.1075657531794992e-04 -4.6531070401514777e-03  4.0064972245234368e-05 6.8682601222741559e-05 -3.9881412332976492e-03  -1.9958701315395160e-04 -1.8752066805382335e-05 -4.0042257236997548e-03  1.7506206867297751e-05 1.4084402656231441e-05 -3.7580339966049982e-03  -1.8391649251911582e-05 3.2506567557896449e-05 -3.7391816298990468e-03  4.1795049394526923e-07 9.6846358661456743e-06 -4.1265669293836455e-03  1.7058143936476519e-05 5.3862085604974796e-05 -4.0744094882105390e-03  3.7732912143075669e-07 2.4622118519094091e-05 -3.9652881663562066e-03  9.7939985189063554e-06 -4.3629571260872115e-06 4.1347383801203764e-06  3.2910218172172730e-06 -3.7873383043401762e-06 1.4279203890880086e-05  -2.3585285601108459e-06 1.9793813323618954e-06 1.1143202404995477e-05  2.1222023928958428e-06 -4.6118759792549383e-06 6.6380669282567004e-06  -1.8512710272227916e-05 6.2243804397616069e-05 -4.1335931362891029e-03  -4.7236242086223836e-05 1.2896520694081053e-05 -4.2384158972920694e-03  -1.1029348691683692e-07 3.5483032445665240e-05 -4.3074270281087505e-03  5.8804347260702644e-05 -8.0751040257512235e-05 -3.6471697787989828e-03  -4.0063764120928816e-05 -2.7042193253028583e-05 -4.2947612546745447e-03  6.6438144616221060e-05 1.1923822171008310e-04 -3.8800278096885604e-03  -2.3066747785877029e-05 6.5185809828866842e-05 -4.7014158673062256e-03  -9.5203380308455317e-05 -9.4333698222316125e-05 -4.2442721526578528e-03  3.0106724931486791e-05 1.7940802365112965e-04 -3.3305741207759415e-03  3.1898630913516362e-05 -1.2026566370153851e-04 -4.4299467523792298e-03  -8.5374295677882842e-07 -9.0748720544957963e-07 -3.4555157581599976e-03  2.0821175513066360e-04 -3.5479018774819153e-05 -3.8360996977959325e-03  -4.9749078148893729e-05 -2.2666695247664206e-04 -3.7327017250631226e-03  1.9209069450044530e-05 5.0414346298358887e-05 -3.5732481437243052e-03  -3.9757982861051375e-05 -2.0154690432310479e-05 -3.9939324056315765e-03  -1.4125436527318274e-04 8.6944131181847353e-05 -2.7341832476579127e-03  4.9031717965086870e-05 9.5244423712394650e-06 -4.1441862975445578e-03  -6.0371873999546701e-05 6.1948808946378562e-05 -4.1110276553083603e-03  -9.7710794903435607e-05 -6.7148199405470653e-05 -4.9478138331447118e-03  -3.9728483206963608e-05 -5.0361031234616240e-05 -3.3259465661469837e-03  5.6163410092717872e-05 8.7522780674899773e-05 -3.9268310458819879e-03  -8.6351435313807262e-06 1.3809990463323306e-05 -3.8714654064235347e-03  9.0997438300562009e-06 -7.4274785053915349e-06 -3.8474348597165226e-03  6.0568446814142365e-07 -1.0936924831493346e-05 1.5423899840873375e-06  -2.6454187515912396e-04 -4.1850275012806840e-05 -5.5845764438395770e-03  9.1937307079692902e-05 -2.8156437763718876e-04 -3.6398383212014412e-03  -1.0373658985641933e-04 1.3538005378738201e-04 -3.0044741282065587e-03  -1.4575120177016077e-06 4.7249777012245145e-06 -3.6895668283702830e-03  1.5731875418296470e-05 -2.7141267470727759e-05 -3.5617446417217052e-03  1.2191290405092366e-07 1.5313320742802654e-06 -1.1795893768985568e-06  -1.2123126682208718e-05 1.1251763942392260e-06 1.1722530871232344e-06  3.6627693937981371e-05 2.4081621494281669e-05 -4.0919321044354728e-03  -1.4302006473174333e-07 2.4209608322283766e-06 -1.4886624119647425e-06  1.3350929476705266e-06 8.5451001440291001e-06 2.1930254463233724e-06  2.2764834210691154e-06 -2.4279348376629902e-06 4.4725846638573008e-06  1.3604513883183560e-04 -3.7017368066568918e-04 -2.8968126779782217e-03  -9.3449862046762252e-07 2.7748151179961690e-06 -4.1575012657028132e-07  -1.3441326155272861e-06 -2.8481680736767258e-06 3.5709247583614313e-07  -9.9828469996883326e-08 1.2888607972760178e-05 -3.6432463195334764e-07  1.5118507141607582e-05 3.7980257851884805e-04 -3.9940214148163154e-03  -4.0356905135859619e-05 -6.9840385982739228e-05 -3.3026017992149087e-03  2.0141044431473064e-05 -1.7542767358544046e-05 -4.1132255908775403e-03  -1.2339111233942159e-06 -7.3252899191073078e-05 -3.9311235128223505e-03  1.8619014161141111e-05 -5.8964106441323888e-05 -3.0755883686691830e-03  -1.4060783779758291e-04 -9.2694203602739408e-05 -3.0338188076060495e-03  -2.7951219782594268e-05 -1.7825923567840182e-05 -3.4139078710534463e-03  6.1138934592768461e-05 -1.0590454190037933e-04 -3.7525166932504874e-03  -1.7637711787233475e-04 -2.7366266809410108e-05 -4.0349557724688456e-03  -2.6129627751458908e-06 -2.5108126696208509e-04 -2.9345434300538744e-03  -5.7861667160886182e-05 -1.0954717892459519e-04 -3.5638934198292918e-03  -6.2733922542939580e-05 7.7321264725426395e-05 -3.1479453228289052e-03  -2.7535215247142836e-05 -5.3452348158736733e-05 -3.5304743692601312e-03  1.6200041716876360e-04 -2.0980091934659321e-04 -3.4779208738882771e-03  -1.7312432983156132e-04 -9.5501612607759150e-05 -2.9873453634964562e-03  -5.6025423667172098e-05 2.0377012608518587e-05 -3.3409814113152629e-03  2.5439204288789461e-04 -1.4598238122014126e-05 -4.2698016635401310e-03  1.2155967840998001e-04 -3.7601154305852349e-04 -4.0720969332881073e-03  -4.5934472155070451e-05 -3.7120562506125179e-05 -4.0431763290874473e-03  -1.9907422122691224e-05 3.0265357773946538e-04 -3.7743599936610642e-03  -2.7036630926269898e-05 2.3977132670925273e-04 -4.4457440030478386e-03  4.5758773789331266e-05 -3.9754202559599708e-06 -2.7123748503233686e-03  -5.1004870985298365e-05 -2.3454316827227183e-05 -2.7760345123598327e-03  9.6273349391498404e-05 -1.7421350268588956e-05 -4.6757028293905540e-03  6.4997235122149860e-05 6.1247137850687711e-05 -3.8027537895666905e-03  -2.9484430722093880e-05 5.6846202471587399e-05 -3.6145596778789728e-03  -9.6567147271294130e-06 -1.0594819222833600e-05 1.9773048970287779e-06  1.2319068811685305e-05 2.5507680447999983e-05 -3.5980287008800555e-03  2.0629895976932595e-05 1.6662131919814069e-05 -4.8615445357346925e-03  2.2201257767064031e-05 4.4281157199752488e-05 -4.0498947236268521e-03  4.2187100079446691e-07 -1.2940575194293799e-05 -4.1054200053908330e-03  5.2654658566617040e-05 9.8712719312888997e-05 -3.0468339884421858e-03  4.9043310021040097e-07 -3.2917913206609574e-06 2.2638420804104770e-07  -3.1740346431056738e-05 4.6506903955005217e-04 -3.9501947246024377e-03  -2.1181152067213457e-04 4.3604480416712987e-04 -4.5666539437915305e-03  4.5232639590225214e-04 -4.4909292691637151e-04 -2.9427622337800251e-03  -2.1976844730497367e-04 1.5675856576391250e-04 -4.4271748035778899e-03  8.3942449412167450e-05 8.4942952207559303e-05 -3.3498824466233574e-03  1.2045187504050969e-05 1.7794063283596987e-04 -4.4797294845349131e-03  1.7292687640201555e-05 -2.0401191056538002e-05 -3.2911877071451685e-03  -4.5599899742638489e-05 -2.9992276172276149e-05 -3.5436780077260440e-03  5.2046117625744637e-05 5.5277517473425885e-05 -2.1000370488048151e-03  -6.8588075201887511e-05 6.8397243326810201e-05 -3.0396780300353927e-03  1.5837643857919518e-04 -3.1878276881127742e-05 -2.8931970073260856e-03  7.4212431145226278e-05 7.2948131869731233e-05 -3.7971268866338992e-03  4.0396176553398439e-04 -4.4006645354443989e-05 -2.8646234374791685e-03  2.9954454037738011e-04 7.0180806286198971e-06 -4.3453397811701521e-03  -2.4763579913398921e-05 -7.3305807543620682e-05 -3.4240613137358875e-03  1.7178289355911124e-04 5.8990717606786103e-05 -2.3781623117835808e-03  -2.3573992091651266e-06 -4.0508923399928165e-06 1.2432455561189015e-06  1.6507236376998703e-06 3.3546497131169378e-06 -5.7167457784839912e-08  -2.5519338728915341e-04 3.4647857647901817e-04 -4.6797031964429621e-03  1.1623960402965368e-04 -3.1824789576344450e-04 -2.4854287352944230e-03  2.8957704987041778e-05 6.0326025347589328e-06 -4.1095611681186556e-03  -1.0678636870600241e-05 -5.5389709616843972e-05 -3.6182153801934498e-03  1.6132231308720202e-05 -1.5552037414037115e-05 -3.6753657773948858e-03  -2.9851884781343317e-05 7.5752888887471416e-05 -4.4353638019743241e-03  -2.6720584891737949e-05 -4.2823757825089933e-05 -3.7477999331174323e-03  7.0484278584161263e-06 -9.4284548060625807e-06 2.8530766638685243e-06  -1.4365172393144648e-05 -1.0519169911423936e-07 -2.5339878866101662e-06  1.2085152935560548e-04 -1.3968579691976836e-04 -4.3198613159653888e-03  1.0997081678543672e-04 5.1930965487780727e-05 -3.5438527058644165e-03  1.5467426609270983e-05 -1.3984673851115507e-05 6.3952033314782391e-07  4.7130196376170555e-06 6.2510696615916188e-06 -2.5517349784750403e-06  4.0128072253256247e-07 1.5101831246545607e-05 2.5215466286076340e-06  -9.6778395809451432e-05 1.2212831041262621e-04 -2.7295094879356747e-03  7.8906412554255616e-05 1.9099636105306537e-04 -3.9287685071998663e-03  6.1481513903443227e-05 -2.2023343618550205e-05 -2.6543256453507476e-03  -8.1800637625262563e-05 -1.9901868686411139e-05 -3.9562874073101493e-03  -1.3895586765567199e-04 -4.7977995456137176e-05 -3.4398356141382043e-03  -1.6541111910000170e-05 -3.3741073488917731e-05 -3.0337557894023455e-03  3.8851960719607212e-05 -6.6568218299656811e-05 -2.7403257585027901e-03  2.5305113491589630e-05 3.8856756399754140e-05 -4.0784763012296534e-03  5.1408888744792881e-05 7.5453016479450153e-05 -2.6168340967806579e-03  -1.3882604487256781e-06 4.0031219279346757e-06 -4.6400217001071591e-03  1.6960887604168398e-05 4.4506325761224057e-05 -4.3904896916449080e-03  -5.3032806058769329e-05 -6.8266905593585503e-06 -3.1107874032437741e-03  9.0365948177196866e-05 4.5772446949876796e-05 -4.8799003428898098e-03  -1.0448448499015279e-04 1.2110877434746747e-04 -4.1989305907162693e-03  -2.2339709818532803e-05 1.6278614226897196e-04 -2.1891734399169601e-03  3.1776273384039604e-05 1.1418240191501826e-04 -3.3470908490850762e-03  -3.1696611362001872e-05 -7.1144825371409004e-05 -3.6673148786797549e-03  -1.0085531064431485e-04 1.0575556953227714e-04 -3.0546867467876391e-03  -6.7631061186936828e-05 7.1879904945389807e-06 -4.4911056265112834e-03  6.1118869525466745e-05 2.4123175912164876e-05 -3.2131309431796019e-03  1.9402427115768178e-04 -8.8228019352257033e-06 -4.0516324303720083e-03  3.8782293012745051e-05 -3.2936243336433988e-06 -3.6330269904295684e-03  2.1603923553340512e-06 1.2723152836993739e-05 -3.7115966227758944e-03  -5.7350929710788039e-07 -1.1378686632711204e-05 -2.6241443327456982e-07  -6.2405638039016480e-07 -1.0702162341002817e-05 4.2906122469219562e-06  8.7070402120394239e-06 3.5657471953097077e-06 1.0403022617371531e-06  -1.2532101270743774e-04 -9.8125216176724226e-05 -1.9919820277745884e-03  1.5851069659516546e-05 -1.5113380093630146e-05 7.9804968845648975e-06  8.7040099004191601e-07 -2.7019435499637387e-06 -2.3048069024136644e-06  1.1287411403484948e-06 1.1629894284741535e-05 2.7496587337596711e-06  -1.2115277476285447e-05 -1.4805881859986572e-06 3.4689401527427368e-06  -5.1651548026834630e-05 -2.2732192194009075e-05 -3.7173026663874782e-03  9.0361846388185149e-05 2.2544421450251684e-05 -3.0782905034192998e-03  -3.3656147331622414e-04 1.9011308684367735e-04 -4.0156234196338202e-03  6.5723875883415378e-05 2.6972977284852413e-04 -3.6897779799902526e-03  1.4177130792885793e-04 1.0116714397083204e-05 -3.5262856189442250e-03  -1.0992284101437527e-04 1.9145837955811119e-04 -3.3920492831781392e-03  -2.0415436268031542e-04 -3.3662714246202784e-04 -3.3945980748853405e-03  1.8306905110279699e-08 -2.4524409412265346e-07 2.4239861112112767e-08  -5.0836373983148665e-07 1.3074445135756656e-07 1.9532663728848610e-06  1.0035003842610113e-04 -1.1418943352474114e-04 -3.8232690197217228e-03  -1.4216577040611984e-04 2.3191596268004808e-04 -2.2722248010687961e-03  -1.5491673469878895e-06 -1.3592463507431480e-04 -5.1845831294660780e-03  1.7245319424472307e-05 1.5269364211755633e-05 -4.1212760558598698e-03  -1.6867827133768221e-07 -4.3223629053646340e-06 5.1293287667548484e-06  -1.4206618839925044e-06 -8.9662209260462240e-06 -2.2605084367858893e-06  -3.5279452991172033e-06 1.0518491329630052e-05 -1.7847988937562718e-07  7.0846591928906626e-05 -9.0304601056044435e-05 -2.4127042374763631e-03  -1.0200491399865865e-04 -6.0125937937319112e-05 -2.9259817430584592e-03  1.1067058373367891e-05 -5.7641715288390814e-05 -3.7340878002332118e-03  -5.6497734796441281e-05 -4.0601896295358678e-05 -2.6248721196288796e-03  5.8504734721861802e-05 -1.2141549595185439e-05 -1.9495871690725765e-03  -2.5625479843897285e-05 -3.1231640034206271e-05 -4.8834264717251769e-03  3.6212206829135190e-05 -9.5351379415427278e-06 -4.0494702780304081e-03  9.7161177099239086e-06 4.1345194683025436e-05 -3.4863057112127318e-03  1.6207609614550593e-06 -8.1176334814545958e-05 -2.1009849596118281e-03  1.7728036482671248e-05 -2.3609577728639576e-06 -4.1388600315325885e-03  6.0886195286299162e-05 2.0405747905660599e-05 -4.3807760535066352e-03  5.5215043223954761e-06 3.9624528821990999e-06 5.1339103930743602e-06  2.5972177671284098e-06 2.7978147949350928e-06 -5.1846018374747860e-07  3.6076506854541726e-04 -1.1474372110072175e-04 -2.2483257517440128e-03  -9.1695272678455928e-05 2.5610905417286732e-05 -5.2410441584887285e-03  -1.1635499769540965e-05 8.5228548517288195e-05 -3.5019005098704597e-03  2.5008399957003357e-05 3.4237091287252108e-05 -3.9555646625622368e-03  8.6025762627017449e-06 1.0527962518944933e-05 -4.1648317112112313e-03  4.4120566853369624e-06 -6.3362927642419908e-06 -2.9047087439895394e-06  3.3083082573073687e-06 1.3822672460479980e-06 8.7737142665577022e-07  6.2440085048739730e-05 -6.0272555664194719e-05 -3.1628986112815977e-03  5.4714298468429061e-05 8.3796111990682673e-05 -3.2427268343473243e-03  -1.1910288018022299e-05 -7.0818145267424668e-06 -3.0284030801174594e-03  -6.1684691900993762e-05 6.3180099048964060e-05 -3.5081783506941671e-03  5.1446566426601683e-06 -2.6352913332031611e-05 -3.8761108414198187e-03  4.2165301614444273e-07 2.8439535376347734e-06 -5.0540772125659209e-06  1.9298232275052474e-07 1.9267962728057591e-06 -2.4723607582485508e-06  -2.6324300959959748e-08 -4.8248383151375136e-07 1.4245387286959934e-06  4.2206459597366365e-05 3.4969420510220039e-05 -4.5636015790882925e-03  6.7048982255783573e-06 3.4588189178353384e-05 -4.1166414925441026e-03  -2.3451851560813549e-06 5.6517784561768228e-05 -4.2779746223755681e-03  -1.4717293892554607e-05 6.6939684462018507e-05 -4.5816558308832932e-03  -3.5986903527500868e-05 -8.7818643989032367e-05 -5.0462000852509467e-03  -8.3504965009417541e-05 -4.8275211073371842e-05 -3.3062097322215473e-03  7.2399957112159539e-06 -3.9041270897602826e-05 -3.2066041479785435e-03  -1.6332010129373380e-06 1.2146268373038521e-05 5.6049054184539608e-06  -5.7804180464555868e-07 -5.6794045515616331e-06 -2.6617371575799366e-06  -2.3146926277119471e-04 -7.2871804747914954e-05 -3.1405390587763010e-03  1.1260108944623742e-04 -6.3736846457252480e-06 -2.6699079889608082e-03  -7.5382548251305136e-06 6.3988154047813552e-05 -2.2329076086086701e-03  1.0861332629522944e-04 -6.7180795407736086e-05 -3.2761681797903227e-03  -6.4112666103475368e-05 -1.0391144312453975e-04 -3.6714207497999941e-03  -1.3372048396787187e-05 -1.2282280184914979e-04 -3.4932037075847385e-03  1.1806664856302845e-04 -9.4422433944627395e-05 -4.3471408518415055e-03  -9.6921889629682180e-05 2.5674675810880341e-04 -2.9329173705080099e-03  -1.5438727573277805e-04 5.1440069771262426e-05 -2.1806116673905372e-03  1.8092803485895133e-05 -3.4020761389139859e-06 -3.6572350186926399e-03  1.1036297160490144e-05 6.0180308585927729e-05 -4.6059107738366523e-03  8.2585896637976319e-05 -1.8099644678945248e-06 -4.0852819587452209e-03  -1.8903530187143491e-05 3.0133901742486817e-05 -3.3528828744356252e-03  -4.7833861006330442e-09 -4.7252932316079144e-05 -3.8362831223765219e-03  2.7500332772804512e-05 -5.4804316508451886e-05 -4.4047638521503563e-03  2.2891308954034395e-05 2.3416718587538978e-05 -4.2972137093706684e-03  -1.8161202460857816e-05 -1.7313721587061860e-05 -4.0352830515296831e-03  -4.6307375903459200e-05 -1.8485370121684830e-05 -4.0189201775654732e-03  1.0068019213070619e-04 4.9770246916551610e-05 -3.3070254657908992e-03  6.0420190152177486e-05 -6.7389295380945841e-06 -3.9494448891295277e-03  -1.0080694644807072e-04 -1.1816926684759282e-04 -4.3801542022193756e-03  -4.6284719280835315e-06 -6.6944579319790816e-05 -4.6497445959065116e-03  -2.4199095595459591e-05 -1.0639095631043189e-04 -4.8521647372188328e-03  -8.4370400141357786e-05 5.5797606523956569e-05 -2.7738637987473418e-03  1.7257773783674407e-05 -8.7410703214281949e-05 -4.0135279595856655e-03  -7.8215341190526660e-05 -3.6360863668998831e-05 -3.0825579894331583e-03  6.7220023088885008e-05 2.0536809534986862e-04 -4.1375154844063098e-03  -6.6149077195395373e-05 8.7834408666552529e-05 -1.5150064038714792e-03  1.4839456781025811e-04 -3.1539072669920442e-04 -4.7816941717298209e-03  6.2963607447222690e-05 2.1596646684196079e-04 -2.7891925579628554e-03  -5.8188277067936166e-05 2.7725185804217417e-06 -3.3404511849032619e-03  -2.3042540526192514e-05 3.0523976763166849e-05 -3.2693146217206170e-03  1.4240725300330605e-06 -7.0083672244123680e-06 -1.7536403513044643e-06  -1.0157530764724582e-06 -9.1085756042353857e-06 -3.5159768507258678e-06  5.0573765704378504e-07 1.1288451417386567e-05 9.8025568835121876e-07  2.0904374788516491e-04 -2.3323660964771694e-04 -4.7091745110667202e-03  -4.0787988442834107e-05 5.3520336271239067e-05 -3.1144073906063047e-03  7.4585329049824096e-05 2.3260001067703144e-05 -4.5051863289325006e-03  -1.5530067952447188e-04 6.4786680709996020e-05 -4.1064507039162597e-03  -4.2372873046665543e-04 -1.6198597241414282e-04 -4.3240572559522274e-03  1.0656200755272899e-04 -1.2742055807756099e-04 -3.9824803364760320e-03  2.9418098378121867e-05 1.0817370787109301e-04 -2.7296354938570484e-03  -6.2881719730755215e-05 -1.8750588113177234e-04 -3.8074236856490379e-03  -2.0168932939315401e-05 -1.2877560787967078e-04 -3.1758995282806951e-03  2.3048807595307211e-06 6.6063227622588456e-06 -4.6353032431567285e-06  -3.2441763393603105e-07 2.8981275744469044e-06 -3.0647627233111451e-06  8.8422319131199943e-05 1.2603047488737062e-04 -4.2746182926886268e-03  -4.5493207795044432e-07 4.0729365241630550e-06 -1.