<?xml version="1.0"?>
<VTKFile type="UnstructuredGrid"  version="0.1"  >
<UnstructuredGrid>
<Piece  NumberOfPoints="857" NumberOfCells="3763">
<Points>
<DataArray  type="Float64"  NumberOfComponents="3"  format="ascii">-0.0182597916573 0.126128911972 -0.119588643312  -0.0077641364187 0.0512270443141 -0.07050477713349999  -0.0237180162221 0.16240182519 -0.053058128804  -0.107877351344 0.105669431388 -0.0502408407629  -0.0444478429854 0.116080775857 -0.00235075876117  0.0393674038351 0.112876079977 -0.0491501875222  0.0248903874308 0.0489483103156 0.000152088920004  0.0314915925264 0.114928804338 0.0218031276017  -0.0657326281071 0.0685198307037 0.0497140102088  -0.0355357266963 0.164656624198 0.0508319064975  -0.010538729839 -0.0422629192472 -0.208358153701  -0.0239527057856 0.0135364839807 -0.242119863629  -0.0194642152637 -0.0775559768081 -0.263431429863  -0.08492307364939999 -0.0108216870576 -0.280446648598  -0.08293507993220001 -0.0361198186874 -0.159778758883  -0.0240796487778 -0.0824203491211 -0.148982465267  0.0430508553982 -0.121076337993 -0.234084427357  0.0307756774127 0.0324950888753 -0.198437720537  0.00352357281372 -0.00433266581967 -0.144715368748  -0.0456651262939 0.08372022956609999 0.342343091965  -0.116630032659 0.0117083769292 0.386158525944  -0.08223126828669999 0.0577075146139 0.289406776428  -0.0511222109199 0.00205342215486 0.300772219896  -0.0125984866172 0.0267426930368 0.351842552423  0.0303636882454 0.0561947338283 0.391145974398  -0.0524924062192 0.0543583929539 0.40361738205  -0.07944945245979999 0.130002260208 0.441037595272  -0.000730989675503 0.119443200529 0.385622620583  -0.078488714993 0.137875169516 0.332541137934  0.0142801422626 0.110509291291 0.27100610733  0.0224165506661 0.08303219079970001 0.331783413887  -0.0170432701707 0.161798536777 0.30022162199  0.000811119796708 -0.0515509881079 -0.08419398218390001  0.0888616070151 -0.015075173229 -0.0776951387525  -0.0989535748959 -0.0518730916083 -0.08125374466180001  -0.0433920919895 -0.09785594791170001 0.0106235472485  -0.0488061010838 0.0295096840709 -0.0131453983486  -0.25 0.25 0.5  -0.166666666667 0.25 0.5  -0.25 0.195066730511 0.445658150344  -0.19506166517 0.25 0.445542865294  -0.0213422998786 -0.126349791884 -0.045622177422  -0.117952652276 0.0158270020038 -0.16616243124  -0.0531469397247 0.0490713231266 -0.13630309701  0.0358348339796 -0.131537660956 -0.134171053767  0.0583617314696 -0.115307979286 -0.0462360456586  0.010585160926 -0.0606908276677 0.314250290394  0.078067921102 -0.133790805936 0.331458956003  0.0206208750606 -0.104583717883 0.36723652482  0.0300164371729 -0.13569638133 0.270959883928  0.0797956883907 -0.07311873137949999 0.388136893511  0.0291880238801 -0.0850581228733 0.220644980669  0.0788302049041 -0.07555303722620001 0.284453928471  -0.0465739220381 -0.108428947628 0.305151432753  -0.056692365557 -0.0812899768353 0.234353885055  0.10282895714 0.0630551427603 -0.0452189296484  0.178613707423 0.153893724084 -0.0703043565154  0.0750898644328 0.130835875869 -0.116260357201  0.0179002508521 -0.0400723591447 0.396018892527  0.07961820065980001 -0.020668130368 0.232235535979  -0.00726175494492 -0.022667773068 0.242156982422  0.0524490773678 0.0171752162278 0.310696065426  0.0103002395481 0.0813155695796 0.107229083776  0.00225681974553 -0.008687185123560001 0.0457225777209  0.177950121638 0.25 0.0405701099774  0.151375159621 0.202163234353 -0.00268407491967  0.13042794168 0.172564610839 0.0599601529539  0.184557154775 0.16295710206 -0.00737970136106  0.0827306732535 0.011830884032 0.0299163535237  0.106673434377 0.0676268041134 0.0663062110543  0.25 0.25 0  0.25 0.177947182503 0.0435581305687  0.0251978598535 -0.0201241951436 -0.0233656335622  -0.25 -0.25 0.25  -0.175495340629 -0.25 0.295351832328  -0.25 -0.175776260788 0.294629825204  -0.164853364229 -0.189889326692 0.246240898967  0.111295968676 0.25 -0.00354384794953  0.0417815256417 0.25 0.0264120515999  0.0577150444892 0.25 -0.0418173710713  0.035034801811 0.196921139956 -0.0497792549431  -0.115254960954 0.0352221727371 -0.0357825122774  0.0360979661345 0.0743419006467 -0.130612716079  0.08110298216340001 0.0143552683294 -0.135737240314  0.0281950440258 0.110801942647 -0.38559025526  -0.000352636008756 0.154027625918 -0.45018479228  0.0220217909664 0.07910815626379999 -0.445265561342  -0.041934799403 0.09297795593740001 -0.440330862999  -0.115356497467 0.128115877509 0.0303980205208  -0.08144567906859999 0.192924261093 -0.0396481454372  -0.0503155887127 -0.140062868595 0.370642662048  0.0181560348719 -0.191118896008 0.319997102022  -0.09442232549189999 -0.0766885429621 0.347179293633  -0.10306725651 -0.0245223585516 0.261891931295  -0.0371639840305 -0.192689821124 0.258922994137  -0.08778057992460001 -0.193450272083 0.293951839209  -0.116932563484 -0.137108251452 0.278956532478  -0.0434515699744 -0.19969072938 0.340430229902  -0.016621209681 -0.143479332328 0.208528921008  -0.0799133181572 -0.177766740322 0.206858798862  -0.0340202823281 -0.07231882214550001 0.405357718468  -0.153045728803 -0.0703692808747 0.28540495038  -0.0647673308849 -0.069349065423 -0.297796696424  -0.0468406006694 -0.118580199778 -0.331259429455  -0.0636249184608 -0.122360698879 -0.235275790095  -0.137311711907 -0.115820750594 -0.279358655214  -0.25 -0.25 0.333333333333  -0.00222280388698 -0.0275516584516 -0.327156513929  0.0233143884689 -0.124395690858 -0.330935031176  -0.00544846989214 -0.0444226972759 -0.392852008343  -0.07202984392639999 -0.0450558848679 -0.379192590714  -0.128861442208 -0.0482712239027 -0.325591087341  -0.0319190612757 0.25 0.27473160228  0.0259018652141 0.196524605155 0.343851953745  -0.0424101948738 0.196461260319 0.324036180973  -0.08801463991400001 0.193724930286 0.280150324106  -0.051391992718 0.129726842046 0.244459152222  0.0793330296874 0.131078347564 0.273738384247  0.0304427426308 0.197590425611 0.258007407188  0.139736711979 -0.103549621999 0.308288753033  0.117407329381 -0.00031748006586 0.284001767635  0.17845864594 0.0137020656839 0.2717012465  0.133446916938 -0.07468281686309999 0.252671837807  0.193237304688 0.0103836003691 0.32706490159  0.108656100929 -0.016409387812 0.370573759079  0.195593327284 -0.0705924406648 0.374003827572  0.204297035933 -0.0882691517472 0.283604085445  0.15987212956 -0.0232784096152 0.211559042335  0.103109702468 -0.0715631917119 0.185957938433  0.25 -0.177950121638 0.0405701099774  0.25 -0.111295968676 -0.00354384794953  0.168315500021 -0.181550845504 -0.0129796266556  0.203061833978 -0.0839376300573 0.0201103240252  -0.123973377049 0.0421161539853 0.0831994190812  0.10652089864 0.041568480432 0.133020982146  -0.00508088478819 0.00464248098433 0.118765294552  0.0384838804603 0.0542355030775 0.219570666552  0.0556482039392 0.09942726045850001 0.165778696537  0.25 -0.25 0  0.25 -0.17904445884 -0.0421267671166  0.0085972994566 0.139411628246 0.206887423992  -0.0427397117019 0.0734880268574 0.199836358428  0.25 -0.25 0.166666666667  0.177338154858 -0.25 0.209433902167  0.178222204231 -0.25 0.126578397361  0.180748909712 -0.154124230146 0.180074676871  0.118582360446 0.0498475395143 0.233844980597  0.113276541233 0.115120351315 0.208414897323  0.068451166153 0.123325429857 0.09300038218499999  0.08695217221980001 0.18308262527 0.11987875402  0.1366494596 0.0978636816144 0.125807240605  0.0170362386853 0.165571182966 0.116205818951  -0.075325883925 -0.13042730093 -0.120773427188  -0.191016584635 -0.1764793396 -0.0778442546725  -0.102759346366 -0.20253264904 -0.07015967369080001  -0.126150563359 -0.115044787526 -0.0573479756713  -0.138729035854 -0.104583211243 -0.134180948138  -0.147993162274 -0.138949289918 -0.203295826912  -0.180331096053 -0.192031860352 -0.160557568073  -0.194399222732 -0.0846866071224 -0.148938387632  -0.11259970814 -0.078034222126 -0.193649172783  0.0326924659312 -0.122268341482 0.0296003930271  0.0215157996863 -0.180560961366 -0.0757267251611  0.0956164896488 -0.0493310950696 -0.0164182558656  0.112129375339 -0.112067811191 -0.105549775064  0.127802968025 -0.106147237122 -0.0110959038138  -0.0854129120708 -0.015297700651 0.056893799454  -0.0204317308962 -0.0795602425933 0.117458000779  -0.178222204231 0.25 0.126578397361  -0.177947182503 0.25 0.0435581305687  -0.107976816083 0.25 0.0905854563709  -0.157577678561 0.178241759539 0.0969507619739  0.25 -0.25 0.333333333333  0.25 -0.25 0.25  0.175776260788 -0.25 0.294629825204  0.25 -0.175495340629 0.295351832328  0.0932372882962 -0.0430554822087 0.0724518448114  -0.044769000262 -0.00661279587075 0.403999477625  -0.194478780031 -0.0247275307775 0.332954645157  -0.173761367798 -0.0806607827544 0.396263659  -0.137637495995 0.00523930834606 0.315887242556  0.0864742994308 -0.139340251684 0.176064118743  0.105438224971 -0.136641919613 0.253711819649  0.0308670303835 -0.25 -0.136809572586  0.0367561832589 -0.25 -0.219583441074  0.0925811678171 -0.20055809617 -0.19996842742  0.0127155454829 -0.193433105946 -0.225977659225  0.0415658205748 -0.200880005956 0.196522325277  0.0373581312597 -0.119548290968 0.120048768818  -0.0954102815882 -0.25 0.346414074494  -0.101368582479 -0.25 0.251933327382  -0.0374909392175 -0.25 0.286229296012  0.0852289572358 0.109103307128 -0.27055695653  0.07707493752239999 0.127253636718 -0.199824258685  0.128097131848 0.07648140937090001 -0.209757223725  0.154867321253 0.13628205657 -0.212952241302  0.08678253740069999 0.189277544618 -0.274375885725  0.127699971199 0.0803090333939 -0.326344817877  0.0577741526067 0.0601542405784 -0.31936660409  0.0525139421225 0.129102528095 -0.326874881983  0.0251371748745 0.175572559237 -0.261228203773  0.0199144631624 0.0927290171385 -0.265960127115  -0.148952946067 -0.121583275497 -0.374568909407  -0.25 0.177950121638 0.0405701099774  -0.25 0.111295968676 -0.00354384794953  -0.175531774759 0.135734900832 0.0562076568604  -0.178730383515 0.191659659147 -0.00562386959791  -0.0244714934379 -0.108516678214 -0.387223660946  -0.09279609471560001 -0.170035287738 -0.445968538523  -0.0281062982976 -0.0
[...]
<PointData  Vectors="f_78"> 
<DataArray  type="Float64"  Name="f_78"  NumberOfComponents="3" format="ascii">1.7204030700744235e-06 -4.7175726122074169e-06 -4.4783901745015092e-03  6.2318733494729722e-07 5.3157563905355023e-06 -4.0572873469681353e-03  7.4415055236236397e-07 -2.8035183173418360e-05 -3.9075343690346265e-03  1.3936294471018958e-05 -6.9762164524305428e-06 -3.5737887513174328e-03  1.2878040771013938e-05 -2.5161411383848331e-05 -4.3708624381655348e-03  4.8792655337539519e-06 5.1821453806209703e-05 -3.9126137643948188e-03  -4.6572405536866925e-07 1.9275518926501925e-05 -4.3041136764830163e-03  3.8834561188477295e-05 1.5515062519624412e-05 -3.9173233139753252e-03  2.9508788632787476e-06 -1.4561756168489927e-05 -4.0832572286775082e-03  -4.1327299761068031e-05 5.3961278886375433e-05 -3.5406588176937178e-03  -2.5811491392015881e-06 1.8791102564440129e-05 -4.1713694635160930e-03  -1.1019898688508824e-06 1.1155478573234150e-05 -4.2248396043193049e-03  3.8010206057944633e-06 1.5276811639012815e-05 -4.1966374308809208e-03  -9.1064184661618151e-06 1.4988048209830189e-05 -4.3863399088820438e-03  1.7395339375752502e-05 1.7296162528723348e-05 -3.4421687343073083e-03  8.6350922524415269e-06 1.5702086877091356e-05 -3.7757875696604482e-03  2.4065550478928998e-05 -1.8132014590834931e-05 -3.3872878629872955e-03  3.6581737221758501e-06 1.2006208716266822e-05 -3.9998520954351068e-03  7.2662508226400976e-06 -1.3714683867094095e-05 -3.9790943281008146e-03  1.2680877380293911e-04 -2.1747937600217273e-04 -4.3596952350196090e-03  -2.1064082847293175e-04 -3.6382245022228261e-05 -4.3362401365977460e-03  -9.1271556175274985e-05 2.1817242134664364e-05 -4.0386470307796759e-03  -1.2898080183862133e-04 -4.1267653849439520e-05 -4.1989775056270762e-03  1.0513207141469722e-05 1.0659428561052159e-04 -4.4834009123185118e-03  7.3509744680625287e-05 8.6322552518881671e-05 -4.3566655275878545e-03  5.0309357188292137e-05 1.5262855256385163e-05 -4.1886756809367308e-03  1.9623828972395750e-04 4.2174539073121773e-05 -4.0523919581156491e-03  -8.2528836340140632e-06 1.0871619894169905e-04 -3.8582461262553092e-03  -1.0317976856520099e-05 1.3806965138203441e-04 -4.3043068510248668e-03  -3.0033624101753545e-05 8.9355458573899029e-05 -4.6404416589421408e-03  6.2213063733425596e-05 4.7534514252846066e-05 -3.9112383751338528e-03  -1.7447930210887926e-04 1.4904006216299981e-04 -3.8036916493634160e-03  6.4287658777966196e-07 7.0068038123072462e-06 -4.2392941943557973e-03  -8.4243526290376144e-06 1.6749735879479414e-05 -4.2537781546879332e-03  -7.9808723392376747e-06 -1.1359993152436170e-06 -4.2677701545687837e-03  9.6211569682791322e-06 1.9521922149981353e-05 -4.1008230050481815e-03  -2.8838661688404220e-06 2.6258669488338684e-05 -4.2184685994209881e-03  5.8877919333870390e-06 -1.8337940607172092e-06 2.1747642339848138e-05  7.8859127545512775e-06 -1.1657990808231271e-05 4.9436224206705350e-06  8.7106520324376009e-06 1.0904282107394791e-06 1.0442431862737341e-05  1.4336525304492588e-06 -7.2288285594842158e-07 4.3574073389927964e-06  -2.3922487676737669e-05 5.1541754494506945e-05 -4.0379304054492205e-03  -6.7606549513282694e-06 1.9827541199521482e-05 -4.2557167452915452e-03  4.0205550575329049e-06 1.7214501389859574e-05 -4.5229367842575209e-03  -1.1921999146699941e-06 -4.8496853471258094e-05 -3.9701270704358164e-03  -1.8520779652768824e-05 -1.8101560981402615e-05 -3.8825046828618237e-03  3.1994035751196375e-05 1.8187367171658018e-05 -4.0759478788713124e-03  -7.3680535095067349e-05 1.5731943713852153e-05 -4.4680477039495230e-03  -1.1987022648167749e-04 -1.0497427125127763e-04 -4.5505248539324658e-03  2.5434089828212093e-05 6.4487385794180749e-05 -3.6853240122681811e-03  1.3908126467123967e-04 -2.1036438856095343e-04 -4.0425176185062582e-03  1.6880846621478802e-05 1.1086758330410567e-06 -4.0489558397954614e-03  1.1119999080181713e-04 -1.1630478979138911e-05 -3.8573410926432878e-03  -6.1851485617742282e-05 -1.0256483825998163e-04 -3.5767536781886916e-03  3.8717173460080313e-06 2.3228796165396975e-05 -4.0167957149390499e-03  -2.3082043997929811e-05 5.9030514328202492e-07 -4.0706794909838957e-03  -7.7173084560064288e-05 1.3980572794625804e-05 -2.9899861057091910e-03  7.8347060852193643e-06 1.1995598453996052e-05 -4.1036500974762895e-03  -1.6888881754288035e-05 -3.6708333188025870e-05 -4.2529199329801081e-03  -2.4367560006787201e-05 -1.2710203660563298e-05 -4.3860728466444399e-03  -8.6648595058993912e-06 5.2122482174869115e-06 -4.1195048970364906e-03  8.8248540932252061e-05 2.6107229988468654e-05 -3.9491733600475008e-03  1.3296807972802756e-05 1.3435731526800690e-05 -4.1434158643228547e-03  4.0596240611687854e-07 4.3636390278221855e-06 -4.3584872053519814e-03  -5.2260451633028431e-06 -8.8721119059220003e-08 -4.8333562491889580e-07  -3.7584705597711218e-05 9.3823247653766078e-05 -4.6892875545358004e-03  3.9467639241972269e-05 -1.8256028987714807e-04 -3.6323667979729730e-03  -9.2200156806538123e-05 7.7655777445155699e-05 -3.0435737607101654e-03  -1.0711699372128711e-05 1.7461964984498776e-05 -4.1537104724920582e-03  -2.3944926453946105e-05 -1.1687822398328684e-05 -3.8963237036743269e-03  -6.7478276538584444e-06 -5.7280530883136312e-06 -2.0066108393893667e-06  3.5963548542166743e-06 -9.5520626600035220e-07 -3.0279685717865981e-07  1.6408948559881740e-05 1.1814897542135375e-05 -4.4755796310981186e-03  5.5285523623360998e-06 6.6941357446619216e-06 -2.4216985629268202e-06  1.8327798467539574e-06 -1.4918526838052321e-06 3.6615998367493443e-06  -6.9380010360764314e-06 -1.7760328652785853e-07 5.5474444763395048e-06  -6.1195773831484120e-05 -2.2911017799321436e-04 -2.7397407440459850e-03  -9.6264563323647862e-07 1.0419952757133451e-07 1.4570448369390059e-06  -1.0756698831506967e-06 -3.5759153447065785e-06 6.4987655663350628e-08  -4.1987922976670551e-07 5.6353447760327309e-06 1.4436780425426366e-06  -5.4831536789501199e-05 1.1902269452322742e-04 -3.8005080108793944e-03  -6.5314034800088367e-05 -3.3629192455314231e-05 -3.9113149128439193e-03  1.0077829659084657e-05 -5.9451022004381587e-06 -4.4717753663410693e-03  3.1396309457159722e-05 -7.7305827837823807e-06 -3.8595475831748396e-03  -3.5450182448112518e-06 -3.5759736844540239e-05 -3.6660562567621961e-03  -5.5769641738499296e-05 -3.9632624396444358e-06 -3.1260372996374346e-03  1.4086423692915542e-05 -1.7298745765787194e-05 -4.0924747150996440e-03  2.0542102220657002e-05 -5.4420295736157362e-05 -4.2913910340041436e-03  -1.0969310545753582e-04 -5.0277947673203074e-05 -4.4775093910262923e-03  -1.7874735581189322e-05 -1.7322688161316608e-04 -3.2362492847258523e-03  1.0593929510505430e-04 -1.4286978871452864e-04 -3.8883890244077973e-03  -7.0121445231150779e-06 7.0829392410555922e-05 -3.3524735212589053e-03  -1.7316732991554571e-04 -1.4669610868521319e-05 -4.0045008434230374e-03  5.4695515338164893e-05 -8.2359701886409794e-05 -3.9303922523075711e-03  -6.2319569321477031e-05 5.9119845888091717e-05 -3.6261264610355152e-03  -2.0139851566640494e-05 -9.3669953381761924e-05 -2.4456350222093483e-03  8.2112625285817891e-05 -5.3011697586686195e-05 -4.4452026651186326e-03  1.9729516217580317e-04 8.7586777752986523e-05 -3.9611381215407153e-03  1.8110662773691670e-05 -9.8097817069919281e-06 -3.9898909098334120e-03  8.0315308472282049e-06 1.4007207100726993e-04 -3.7382093812935451e-03  -1.4499438397044378e-04 1.4088340717035254e-04 -4.2069245771985484e-03  8.0459133139001807e-06 -1.8104839075826345e-05 -2.6994123292730680e-03  3.3212379487140327e-05 1.5251746970780855e-05 -3.5177454726776363e-03  3.1333009791126534e-05 2.6486122476003908e-05 -4.4476705428646368e-03  -3.2014432021917274e-06 -3.5996860233983827e-06 -3.4926721796003737e-03  -3.9340034168228996e-05 1.4103466025338559e-05 -3.4337029693218592e-03  4.1494646180912551e-06 2.0195829208729225e-06 -1.6134921517415999e-06  2.1831382570654767e-05 1.6835853270562097e-05 -4.1161856157049649e-03  1.6570915288052278e-05 2.4727619523191288e-05 -4.5902640378796796e-03  1.7983603305787788e-05 3.3028338612957955e-05 -4.3229261763405805e-03  1.3087238765952695e-05 1.6832382987638430e-05 -4.3155540317739178e-03  3.8816262131164691e-05 1.7639904564229196e-05 -2.6913476891736537e-03  1.7215083612092253e-06 -1.3369578579689496e-06 8.8631076509030501e-07  7.2729968258648662e-05 9.2858134631898306e-05 -3.9077204340265629e-03  -2.8321703042018384e-04 2.4162181301010497e-05 -4.0733580962235656e-03  2.9753975785290748e-04 -2.0424241672850784e-04 -3.6112557817214140e-03  -9.3502179156647146e-05 2.0731883814236246e-05 -4.5519286295107033e-03  3.3810289875045330e-05 6.4229736295546259e-05 -3.6143948687682097e-03  1.0124051806269755e-05 1.1938948149207855e-05 -4.2592137204356751e-03  -1.7494286910475164e-05 -1.2316020235512078e-05 -4.2101914253465803e-03  -6.9375816417453272e-06 6.3212569774230210e-06 -3.8744785075962300e-03  1.0817716075022125e-05 -3.5651687999677047e-05 -2.7231538172274609e-03  2.0426665760758789e-05 2.8278693209753718e-05 -3.8126483256493626e-03  -1.3498288897189907e-04 -5.6942634399675009e-05 -3.1926957916684311e-03  6.4202292095004020e-05 6.7038169274946590e-05 -4.2622383712944681e-03  2.8641875193267442e-04 1.8526556771468636e-05 -4.0047866907134532e-03  1.4534516299620961e-04 -3.6548471125239101e-06 -3.7989704448450038e-03  -8.1766822727120199e-05 1.3755663272915045e-05 -3.7992453676136224e-03  1.0548077524155404e-05 -3.3038153004695540e-05 -2.9752110294224872e-03  6.1466576336296850e-06 -8.2362889156964620e-07 -1.9989586467457057e-06  1.2062694813585306e-07 -2.5143785412362519e-06 8.2009358068442644e-07  -2.1465889253194939e-04 1.4509878180947721e-04 -3.7105180871765905e-03  8.1668925702255008e-05 -1.4191618377651458e-04 -2.8385664940418385e-03  4.4081452715214878e-05 2.6226287112930720e-05 -4.3175613593203427e-03  5.0333163812835703e-06 -4.7608853941150124e-06 -3.7730548526910147e-03  9.3173152510117196e-06 2.9201214255568546e-06 -4.1909629458507036e-03  -1.8321122416075862e-05 2.1101787713244360e-05 -4.3778929174864709e-03  -1.7085201915843366e-06 -3.8615916039396249e-05 -3.8751620539227687e-03  -1.8173008272237978e-06 -1.8574208428004019e-06 6.4203650225866262e-06  -1.0650367824845350e-06 2.1061113220300610e-06 1.5566383131890688e-07  -5.0681356867956137e-05 5.3190407823056732e-06 -3.8877529880115970e-03  3.5949974474217293e-05 3.6198524325965269e-05 -3.9160882960947710e-03  3.7174910209486113e-06 2.4062564061133535e-07 3.5254888919928620e-06  1.9448456277608325e-06 -9.1602512170294265e-06 2.4815574141718062e-06  -2.2417269804625767e-06 -4.2872669838652965e-06 3.2636854485394494e-07  -1.1055645226631097e-04 1.2150910916761557e-04 -2.9310722112367593e-03  1.7340893120463650e-05 4.2000700668372949e-05 -4.1266505525974625e-03  1.8349881170856357e-05 2.1998882905952257e-06 -3.4520799759991151e-03  -5.9608164188210319e-05 1.3231706162847648e-05 -4.2033438996044760e-03  -1.9770923227072305e-05 -7.3046126555161727e-05 -4.1110075456117154e-03  1.7096822141312650e-05 -4.2252340723889730e-05 -3.1184591420108264e-03  3.1727405399672250e-05 -3.9215094381285708e-05 -2.7401112472419066e-03  -1.8134435482085596e-05 4.0660553933973202e-05 -3.8607055521078571e-03  -2.6472170436047562e-05 -9.5078709913371185e-05 -3.1546465653530024e-03  4.0087080354128622e-05 -2.7364931457270324e-05 -3.8782559329431396e-03  -2.8338739545330332e-05 2.3042269818630685e-05 -3.8145241945328869e-03  3.2145652068703007e-05 3.3604503128212141e-06 -2.9304139452344061e-03  5.5507009742788183e-05 -5.9974286752419883e-06 -3.9748963540135246e-03  9.4402599458021479e-05 7.2594256306129447e-06 -3.4361737713528456e-03  1.4574997056096561e-04 1.5639286218869979e-04 -3.7683362583589303e-03  4.6653161028836975e-05 1.6990349444168255e-05 -3.7092527934573052e-03  -1.9388336143263457e-05 -2.9366600445755043e-05 -4.0248180776301587e-03  -9.6763351181567694e-05 8.6390126306096690e-05 -3.1248532559209098e-03  -4.1898820158171793e-06 -1.9126677378289791e-05 -3.9967772461628852e-03  1.5141541147565871e-05 -2.5723707920219458e-05 -3.5447835871880570e-03  4.7277112978515732e-05 -1.6539186106033391e-05 -4.3523935214118637e-03  3.5006744861187341e-05 -2.1417697836974274e-05 -3.9219425711371440e-03  -4.8002109075288925e-06 1.3296534072653596e-06 -4.2466373841485361e-03  1.5792447994577093e-06 3.8831745870437321e-06 -2.0049111368896601e-06  1.2651623240444541e-06 4.2656633782231191e-06 6.2978394943657528e-07  4.4102397528404845e-06 -6.7898624416444714e-06 3.3730584342624477e-07  -1.2623173486526608e-05 -4.2785294540893335e-05 -2.7425445364862707e-03  1.6122039827900607e-06 -8.6822117217774334e-07 2.3600721211313003e-06  -6.5582610902870108e-06 6.8214731798255361e-06 2.4497589903130049e-06  -1.2298707774281328e-07 -6.3946331390078992e-06 2.8038301273182136e-06  4.8680035137703656e-06 1.7090052582214672e-06 8.6748346909849513e-07  -2.2714707482300920e-05 5.0332921900104935e-06 -3.8613709228365071e-03  -2.8560125021725947e-05 8.6858236868494153e-05 -4.1603787097169685e-03  2.0434341402120787e-04 -1.3634165549162330e-04 -3.5420567173764508e-03  -3.1534936610171826e-04 -9.3575205357869599e-06 -3.4799240621072496e-03  7.2735916710962037e-05 -2.9582662716234675e-05 -2.8775424634219365e-03  9.6318181918120076e-05 1.2467411145290918e-04 -3.2011114215025603e-03  -3.8932338254217861e-05 -1.3147207794492915e-04 -3.7212198273943826e-03  6.8802905307498492e-07 6.5102380685689279e-07 8.9298180684183537e-07  1.8248783285484571e-06 7.0255477406582088e-06 -1.5438787623713428e-07  4.3456446770084190e-05 -1.3012934860013231e-05 -3.5219919826466888e-03  -7.4167647606493113e-05 1.6243240855601948e-04 -1.6211306992989587e-03  -3.5446872079504706e-05 -3.6986618996647052e-05 -4.4868022427864227e-03  1.5525478979296271e-06 4.0696423508245398e-05 -4.0490425351265456e-03  -2.1445885667805594e-07 -7.2960757281276052e-10 2.8852153181868743e-06  -3.1487850503250883e-06 -2.8650892116531944e-06 5.2277257472184128e-06  -3.5479252830081788e-06 2.5119885322254926e-06 1.2120398804666038e-06  6.3379082974137209e-05 5.9962509170336971e-07 -3.3573929111968869e-03  -2.4683761846811898e-05 -6.3476186845385721e-05 -3.4641730746251260e-03  1.5424766039232803e-05 -1.7880183339100000e-05 -3.8026562044896615e-03  -9.2972141254811562e-06 8.8199184566142345e-06 -2.7102575584101434e-03  7.9163053509389506e-05 -1.0951791566333757e-07 -2.6736017935862586e-03  -1.6972955192693760e-05 2.1007598278457843e-05 -4.8215933137820280e-03  1.1084557136816961e-05 1.1302467846665996e-05 -4.2641882552331440e-03  1.8184973975717326e-06 -5.7218723296828637e-06 -3.5451972132758986e-03  -6.7418123286498073e-05 -5.1791807914879961e-05 -2.7299644344858298e-03  -7.7389636462532201e-06 6.1197074812377761e-06 -4.4585671611921786e-03  7.2471501584375472e-06 -3.4613487324445502e-05 -3.7786886430949958e-03  -1.3345795825865182e-06 -1.8023675752525286e-06 1.3514782744788202e-06  -9.3740367113018324e-07 8.3140342020533901e-07 6.7806221538997848e-07  3.0567025403459628e-04 -1.7936903086174675e-04 -3.0696828583547950e-03  -1.5903850022380971e-04 5.7477629781981094e-05 -3.4352206704086597e-03  -2.8464721612864851e-05 5.2310890478714548e-05 -3.7514861439116097e-03  7.1833418018129566e-06 4.5561182300341502e-05 -4.0770968435528201e-03  8.9046519920870131e-06 5.4637157573058617e-05 -4.4178543837504174e-03  6.0661841406242143e-06 -8.3976053367755016e-06 -1.5664891808347398e-06  -1.1147383285902105e-05 1.2630143941363669e-06 4.3149759993721448e-06  -1.1326176002557717e-05 -6.1501191855556662e-05 -3.9522502514055952e-03  7.9568496779791086e-05 2.3839487569153996e-05 -3.0297146283213595e-03  -3.7121391088270437e-05 1.2796725302838625e-05 -3.3766589109049355e-03  -7.4201822235164222e-05 4.4838783304367827e-05 -4.5032193275200798e-03  1.1265293956742867e-05 -2.3303493101866679e-08 -4.1427759108783688e-03  3.8756251600527694e-07 2.4922054619685045e-06 -4.4752244032501581e-06  3.1284642857943408e-07 4.8574217486532754e-07 -3.6251277970114266e-06  8.6818841893579027e-07 -2.8049720015384243e-06 1.3497649719261446e-06  1.3050836920917726e-05 6.7051495867462142e-05 -3.8883566109157637e-03  1.4855499761824617e-05 6.7415442952374301e-06 -3.9344505526356958e-03  2.4317433427176205e-06 1.5877948858501889e-05 -4.3038075142713336e-03  -6.0173257148184615e-06 1.4286111706547897e-05 -3.6770342969972875e-03  3.1390336639306440e-05 -6.1468419890443539e-06 -4.6399075979479216e-03  -4.3785432892803989e-05 -2.6081129530740124e-05 -4.1654363215033463e-03  1.7605423661622187e-06 -9.2298804703157129e-06 -3.9274584084264810e-03  1.3688052656968651e-06 -7.1782683766410832e-07 5.7133320189488278e-07  -3.2890420753885798e-06 -1.5931016238155785e-06 -4.4304090845786545e-08  -1.5930012231038222e-04 2.0135901354380300e-05 -3.4166574458326547e-03  4.9550256024692479e-05 7.5566862669661699e-05 -3.2450224823818725e-03  2.6728564237177003e-05 -9.5997035050063749e-06 -2.8035609861294226e-03  5.1713435553841845e-05 -3.3630196836821949e-05 -3.8588025642767193e-03  -1.8143807460359428e-05 -1.7292440864220486e-05 -4.0761240189081619e-03  -6.7164788508498317e-06 -5.7703838390271141e-05 -3.3689368395199574e-03  6.1409111842573771e-05 -1.8464762342151752e-05 -4.3788966445587755e-03  -7.3051379416557975e-05 7.9990829894453896e-05 -2.6827231827164445e-03  -1.0720482923184722e-04 6.8392483889258163e-05 -2.9034270135754048e-03  3.5775397693691227e-05 4.5148143087443204e-07 -4.1211544945020532e-03  6.9620803951436837e-05 2.8929173784640914e-05 -4.7119808357575016e-03  5.4415976475502311e-05 -6.0098905411201653e-06 -3.9298626760079095e-03  1.4408000103750404e-06 1.3423850844377941e-05 -3.9997237792180913e-03  2.5985045026863405e-05 -3.2046354741307880e-05 -4.2948009572855977e-03  2.0395425337722644e-05 -5.6506258392093953e-05 -4.4053703616606984e-03  1.6006172075921616e-05 1.8855986169587706e-06 -4.3433741438463824e-03  1.8060254283959953e-05 1.1748655293447001e-05 -3.5038488955503994e-03  -3.1217050491353668e-05 1.4169720491160905e-05 -3.9426622134595126e-03  2.5740309040576516e-05 -2.3462123768363545e-06 -2.9157140919131861e-03  4.6053627518887792e-05 2.8570561042239331e-05 -3.6064046577494575e-03  5.2490003419421695e-06 -7.4442025733495050e-05 -4.2367560073250498e-03  -7.1391951327162169e-05 -1.0696760495926563e-04 -4.2014977369399294e-03  -7.4394866278438895e-05 2.4579992714997756e-05 -5.2041167363262846e-03  -4.6790332977681327e-05 7.2045337609341503e-05 -2.5204973532127486e-03  8.0099232325547912e-05 -3.7145538551910469e-05 -4.5738425794430984e-03  -1.2828341666563712e-05 -1.2025309444330966e-04 -2.3694650968540923e-03  9.6684706452341224e-06 -3.3593092544453408e-06 -4.0440017247775168e-03  -1.0168974112326511e-05 1.2313705907640400e-04 -2.7119603590609101e-03  4.6897218655174419e-05 -2.0258498456175567e-04 -4.4652681475999328e-03  4.2508054407682956e-05 3.8818761073441702e-05 -3.1918407697400760e-03  -1.6562043537870615e-04 -2.3641883172453697e-05 -3.9536074058514224e-03  -1.3757586829398033e-04 1.0001939740348361e-04 -3.8732857493152502e-03  3.5885986815219155e-06 6.5801308858677878e-06 5.5094782426009940e-07  -8.6466136056643176e-07 -1.2061372671175009e-05 -1.0427161051151866e-06  -4.1122241189679154e-06 9.0801083371529858e-06 7.9980578952982365e-07  9.2660258002026858e-05 -6.6372412639019397e-05 -3.6195643221162486e-03  -1.2897789834802030e-04 -7.7189238173290778e-05 -3.7950939006352888e-03  8.5458866264296658e-05 1.3173959470312964e-04 -4.3599707964613980e-03  -1.1524114806977822e-04 -2.8780032835775727e-04 -3.7140973568854951e-03  -2.1773947860079151e-04 9.0452009769024586e-05 -4.4764090041572334e-03  -3.5850842827629090e-05 -3.3641614197465787e-05 -4.2761644202022903e-03  1.1403111241767763e-04 5.5969589353158715e-05 -3.7575219483798128e-03  3.4854236775599506e-04 -7.6683521701752990e-05 -3.5212603292579165e-03  4.1847906936854787e-05 3.5371145593155451e-08 -4.1291734769284584e-03  1.9063471508114622e-06 5.7548250758437625e-06 -5.0389537231595966e-06  -2.1397524652947498e-07 3.6399962551371431e-06 -5.2031687490755761e-06  3.3783198622623311e-05 1.6491509258238925e-04 -4.7199005777520189e-03  4.0034104105766032e-06 -1.0267564039826213e-06 -1.6498601673924997e-06  -1.7451813