<?xml version="1.0"?>
<VTKFile type="UnstructuredGrid"  version="0.1"  >
<UnstructuredGrid>
<Piece  NumberOfPoints="857" NumberOfCells="3763">
<Points>
<DataArray  type="Float64"  NumberOfComponents="3"  format="ascii">-0.0182597916573 0.126128911972 -0.119588643312  -0.0077641364187 0.0512270443141 -0.07050477713349999  -0.0237180162221 0.16240182519 -0.053058128804  -0.107877351344 0.105669431388 -0.0502408407629  -0.0444478429854 0.116080775857 -0.00235075876117  0.0393674038351 0.112876079977 -0.0491501875222  0.0248903874308 0.0489483103156 0.000152088920004  0.0314915925264 0.114928804338 0.0218031276017  -0.0657326281071 0.0685198307037 0.0497140102088  -0.0355357266963 0.164656624198 0.0508319064975  -0.010538729839 -0.0422629192472 -0.208358153701  -0.0239527057856 0.0135364839807 -0.242119863629  -0.0194642152637 -0.0775559768081 -0.263431429863  -0.08492307364939999 -0.0108216870576 -0.280446648598  -0.08293507993220001 -0.0361198186874 -0.159778758883  -0.0240796487778 -0.0824203491211 -0.148982465267  0.0430508553982 -0.121076337993 -0.234084427357  0.0307756774127 0.0324950888753 -0.198437720537  0.00352357281372 -0.00433266581967 -0.144715368748  -0.0456651262939 0.08372022956609999 0.342343091965  -0.116630032659 0.0117083769292 0.386158525944  -0.08223126828669999 0.0577075146139 0.289406776428  -0.0511222109199 0.00205342215486 0.300772219896  -0.0125984866172 0.0267426930368 0.351842552423  0.0303636882454 0.0561947338283 0.391145974398  -0.0524924062192 0.0543583929539 0.40361738205  -0.07944945245979999 0.130002260208 0.441037595272  -0.000730989675503 0.119443200529 0.385622620583  -0.078488714993 0.137875169516 0.332541137934  0.0142801422626 0.110509291291 0.27100610733  0.0224165506661 0.08303219079970001 0.331783413887  -0.0170432701707 0.161798536777 0.30022162199  0.000811119796708 -0.0515509881079 -0.08419398218390001  0.0888616070151 -0.015075173229 -0.0776951387525  -0.0989535748959 -0.0518730916083 -0.08125374466180001  -0.0433920919895 -0.09785594791170001 0.0106235472485  -0.0488061010838 0.0295096840709 -0.0131453983486  -0.25 0.25 0.5  -0.166666666667 0.25 0.5  -0.25 0.195066730511 0.445658150344  -0.19506166517 0.25 0.445542865294  -0.0213422998786 -0.126349791884 -0.045622177422  -0.117952652276 0.0158270020038 -0.16616243124  -0.0531469397247 0.0490713231266 -0.13630309701  0.0358348339796 -0.131537660956 -0.134171053767  0.0583617314696 -0.115307979286 -0.0462360456586  0.010585160926 -0.0606908276677 0.314250290394  0.078067921102 -0.133790805936 0.331458956003  0.0206208750606 -0.104583717883 0.36723652482  0.0300164371729 -0.13569638133 0.270959883928  0.0797956883907 -0.07311873137949999 0.388136893511  0.0291880238801 -0.0850581228733 0.220644980669  0.0788302049041 -0.07555303722620001 0.284453928471  -0.0465739220381 -0.108428947628 0.305151432753  -0.056692365557 -0.0812899768353 0.234353885055  0.10282895714 0.0630551427603 -0.0452189296484  0.178613707423 0.153893724084 -0.0703043565154  0.0750898644328 0.130835875869 -0.116260357201  0.0179002508521 -0.0400723591447 0.396018892527  0.07961820065980001 -0.020668130368 0.232235535979  -0.00726175494492 -0.022667773068 0.242156982422  0.0524490773678 0.0171752162278 0.310696065426  0.0103002395481 0.0813155695796 0.107229083776  0.00225681974553 -0.008687185123560001 0.0457225777209  0.177950121638 0.25 0.0405701099774  0.151375159621 0.202163234353 -0.00268407491967  0.13042794168 0.172564610839 0.0599601529539  0.184557154775 0.16295710206 -0.00737970136106  0.0827306732535 0.011830884032 0.0299163535237  0.106673434377 0.0676268041134 0.0663062110543  0.25 0.25 0  0.25 0.177947182503 0.0435581305687  0.0251978598535 -0.0201241951436 -0.0233656335622  -0.25 -0.25 0.25  -0.175495340629 -0.25 0.295351832328  -0.25 -0.175776260788 0.294629825204  -0.164853364229 -0.189889326692 0.246240898967  0.111295968676 0.25 -0.00354384794953  0.0417815256417 0.25 0.0264120515999  0.0577150444892 0.25 -0.0418173710713  0.035034801811 0.196921139956 -0.0497792549431  -0.115254960954 0.0352221727371 -0.0357825122774  0.0360979661345 0.0743419006467 -0.130612716079  0.08110298216340001 0.0143552683294 -0.135737240314  0.0281950440258 0.110801942647 -0.38559025526  -0.000352636008756 0.154027625918 -0.45018479228  0.0220217909664 0.07910815626379999 -0.445265561342  -0.041934799403 0.09297795593740001 -0.440330862999  -0.115356497467 0.128115877509 0.0303980205208  -0.08144567906859999 0.192924261093 -0.0396481454372  -0.0503155887127 -0.140062868595 0.370642662048  0.0181560348719 -0.191118896008 0.319997102022  -0.09442232549189999 -0.0766885429621 0.347179293633  -0.10306725651 -0.0245223585516 0.261891931295  -0.0371639840305 -0.192689821124 0.258922994137  -0.08778057992460001 -0.193450272083 0.293951839209  -0.116932563484 -0.137108251452 0.278956532478  -0.0434515699744 -0.19969072938 0.340430229902  -0.016621209681 -0.143479332328 0.208528921008  -0.0799133181572 -0.177766740322 0.206858798862  -0.0340202823281 -0.07231882214550001 0.405357718468  -0.153045728803 -0.0703692808747 0.28540495038  -0.0647673308849 -0.069349065423 -0.297796696424  -0.0468406006694 -0.118580199778 -0.331259429455  -0.0636249184608 -0.122360698879 -0.235275790095  -0.137311711907 -0.115820750594 -0.279358655214  -0.25 -0.25 0.333333333333  -0.00222280388698 -0.0275516584516 -0.327156513929  0.0233143884689 -0.124395690858 -0.330935031176  -0.00544846989214 -0.0444226972759 -0.392852008343  -0.07202984392639999 -0.0450558848679 -0.379192590714  -0.128861442208 -0.0482712239027 -0.325591087341  -0.0319190612757 0.25 0.27473160228  0.0259018652141 0.196524605155 0.343851953745  -0.0424101948738 0.196461260319 0.324036180973  -0.08801463991400001 0.193724930286 0.280150324106  -0.051391992718 0.129726842046 0.244459152222  0.0793330296874 0.131078347564 0.273738384247  0.0304427426308 0.197590425611 0.258007407188  0.139736711979 -0.103549621999 0.308288753033  0.117407329381 -0.00031748006586 0.284001767635  0.17845864594 0.0137020656839 0.2717012465  0.133446916938 -0.07468281686309999 0.252671837807  0.193237304688 0.0103836003691 0.32706490159  0.108656100929 -0.016409387812 0.370573759079  0.195593327284 -0.0705924406648 0.374003827572  0.204297035933 -0.0882691517472 0.283604085445  0.15987212956 -0.0232784096152 0.211559042335  0.103109702468 -0.0715631917119 0.185957938433  0.25 -0.177950121638 0.0405701099774  0.25 -0.111295968676 -0.00354384794953  0.168315500021 -0.181550845504 -0.0129796266556  0.203061833978 -0.0839376300573 0.0201103240252  -0.123973377049 0.0421161539853 0.0831994190812  0.10652089864 0.041568480432 0.133020982146  -0.00508088478819 0.00464248098433 0.118765294552  0.0384838804603 0.0542355030775 0.219570666552  0.0556482039392 0.09942726045850001 0.165778696537  0.25 -0.25 0  0.25 -0.17904445884 -0.0421267671166  0.0085972994566 0.139411628246 0.206887423992  -0.0427397117019 0.0734880268574 0.199836358428  0.25 -0.25 0.166666666667  0.177338154858 -0.25 0.209433902167  0.178222204231 -0.25 0.126578397361  0.180748909712 -0.154124230146 0.180074676871  0.118582360446 0.0498475395143 0.233844980597  0.113276541233 0.115120351315 0.208414897323  0.068451166153 0.123325429857 0.09300038218499999  0.08695217221980001 0.18308262527 0.11987875402  0.1366494596 0.0978636816144 0.125807240605  0.0170362386853 0.165571182966 0.116205818951  -0.075325883925 -0.13042730093 -0.120773427188  -0.191016584635 -0.1764793396 -0.0778442546725  -0.102759346366 -0.20253264904 -0.07015967369080001  -0.126150563359 -0.115044787526 -0.0573479756713  -0.138729035854 -0.104583211243 -0.134180948138  -0.147993162274 -0.138949289918 -0.203295826912  -0.180331096053 -0.192031860352 -0.160557568073  -0.194399222732 -0.0846866071224 -0.148938387632  -0.11259970814 -0.078034222126 -0.193649172783  0.0326924659312 -0.122268341482 0.0296003930271  0.0215157996863 -0.180560961366 -0.0757267251611  0.0956164896488 -0.0493310950696 -0.0164182558656  0.112129375339 -0.112067811191 -0.105549775064  0.127802968025 -0.106147237122 -0.0110959038138  -0.0854129120708 -0.015297700651 0.056893799454  -0.0204317308962 -0.0795602425933 0.117458000779  -0.178222204231 0.25 0.126578397361  -0.177947182503 0.25 0.0435581305687  -0.107976816083 0.25 0.0905854563709  -0.157577678561 0.178241759539 0.0969507619739  0.25 -0.25 0.333333333333  0.25 -0.25 0.25  0.175776260788 -0.25 0.294629825204  0.25 -0.175495340629 0.295351832328  0.0932372882962 -0.0430554822087 0.0724518448114  -0.044769000262 -0.00661279587075 0.403999477625  -0.194478780031 -0.0247275307775 0.332954645157  -0.173761367798 -0.0806607827544 0.396263659  -0.137637495995 0.00523930834606 0.315887242556  0.0864742994308 -0.139340251684 0.176064118743  0.105438224971 -0.136641919613 0.253711819649  0.0308670303835 -0.25 -0.136809572586  0.0367561832589 -0.25 -0.219583441074  0.0925811678171 -0.20055809617 -0.19996842742  0.0127155454829 -0.193433105946 -0.225977659225  0.0415658205748 -0.200880005956 0.196522325277  0.0373581312597 -0.119548290968 0.120048768818  -0.0954102815882 -0.25 0.346414074494  -0.101368582479 -0.25 0.251933327382  -0.0374909392175 -0.25 0.286229296012  0.0852289572358 0.109103307128 -0.27055695653  0.07707493752239999 0.127253636718 -0.199824258685  0.128097131848 0.07648140937090001 -0.209757223725  0.154867321253 0.13628205657 -0.212952241302  0.08678253740069999 0.189277544618 -0.274375885725  0.127699971199 0.0803090333939 -0.326344817877  0.0577741526067 0.0601542405784 -0.31936660409  0.0525139421225 0.129102528095 -0.326874881983  0.0251371748745 0.175572559237 -0.261228203773  0.0199144631624 0.0927290171385 -0.265960127115  -0.148952946067 -0.121583275497 -0.374568909407  -0.25 0.177950121638 0.0405701099774  -0.25 0.111295968676 -0.00354384794953  -0.175531774759 0.135734900832 0.0562076568604  -0.178730383515 0.191659659147 -0.00562386959791  -0.0244714934379 -0.108516678214 -0.387223660946  -0.09279609471560001 -0.170035287738 -0.445968538523  -0.0281062982976 -0.0
[...]
<PointData  Vectors="f_104"> 
<DataArray  type="Float64"  Name="f_104"  NumberOfComponents="3" format="ascii">-6.7495969900503190e-05 -7.1697339553345715e-05 1.3789430500421601e-01  -1.8358742037876121e-04 -5.8748508173704296e-05 1.6275127472502807e-01  -3.2651303735659487e-06 6.1224501387435769e-05 1.1740382176631579e-01  -1.6119543566154665e-04 2.2541966776483627e-04 1.2957428528828163e-01  1.3569483892804190e-04 2.0854414214789782e-04 1.3936170216162422e-01  3.2428714274266597e-04 5.1106173685746756e-04 1.4177009571133700e-01  1.0170622586320683e-04 1.1360739616512613e-04 1.6185697873817972e-01  2.7149308663471859e-04 3.0272643259716221e-04 1.4151624973022303e-01  -2.4789512821594142e-05 2.7767210847074440e-04 1.5096310350658626e-01  -1.7446974685816045e-04 1.9471412628392970e-04 1.1468393474547935e-01  1.9111920471811167e-04 -5.6814792228108509e-05 1.6473454158023348e-01  -1.7652203851049955e-05 -2.4307243286930694e-05 1.6699265606685995e-01  -4.2164713402918498e-05 -1.1424575377968825e-04 1.5697085098946689e-01  -8.5089795988457586e-05 3.9926076279276248e-05 1.5554360146809684e-01  -2.0576828099546737e-04 -2.5719546459465246e-04 1.5345218722780721e-01  9.8847750730906125e-06 -3.8424558885738582e-05 1.5438367556282079e-01  3.2690036677805447e-05 -1.2552094932184114e-04 1.3944189569447657e-01  1.1180866214956012e-05 1.9161585094621460e-04 1.6457836205270485e-01  6.3912966732788460e-05 4.2147435587370394e-05 1.6766506527043107e-01  -3.2945637192448910e-03 6.0095650082598682e-03 1.3982172831619974e-01  -9.5180581339083543e-03 6.1196320046350580e-04 1.2869492605373273e-01  -2.9417328334379717e-03 2.1233612418336046e-03 1.4271060065125216e-01  -1.7871966196663608e-03 2.6703672325736357e-04 1.5105986717573511e-01  -5.6423751422985530e-04 1.7524181314060752e-03 1.4634610532675044e-01  4.5579758846678829e-03 5.8028116659417364e-03 1.3691094860581415e-01  -6.7301792312143525e-03 6.4946737460086085e-03 1.3308992136011366e-01  -9.9459913784945269e-03 1.3894028539237172e-02 1.1931999483705122e-01  -1.6630380478244129e-04 1.0370078751164101e-02 1.2872721533817283e-01  -4.8059681763176930e-03 6.2482891106148799e-03 1.2287914939456407e-01  -8.5209945554198420e-05 2.7788759493476691e-03 1.4052052360337439e-01  2.1573411199884958e-03 5.0241335926316634e-03 1.4353116456003048e-01  -9.6975491172529018e-04 3.8560118826561399e-03 1.1502996082827942e-01  1.7162532091673420e-04 -7.0111919818968314e-05 1.6292683769156099e-01  1.5851313033348960e-04 -2.6171945418811766e-04 1.5322508776263336e-01  -1.4936629337240908e-04 -9.0713177756485513e-05 1.4620031800387670e-01  -3.8249023613398127e-04 -1.4354687869964068e-04 1.4675770247072462e-01  2.8165400079385835e-05 -3.0471771902955251e-04 1.6108029118321168e-01  -1.1085098542828605e-02 9.3895511844598271e-03 1.3736870112175426e-01  -7.8577528791132032e-03 2.9528093339345339e-03 1.2637340602155425e-01  -9.1829970709646526e-03 1.0602512118226822e-02 3.2848230141477842e-02  -8.1724683306143003e-03 6.8540177422819412e-03 3.6812852716653938e-02  -3.2767009506988768e-04 -1.5805875218985411e-04 1.3702393748544994e-01  -3.4036999102255707e-04 2.7593337982505169e-04 1.4292440414386187e-01  1.6185382790370615e-04 8.8546095857179293e-05 1.5841198549496380e-01  1.3697692799359193e-04 -6.5385946756525172e-05 1.3430112794830895e-01  1.9476148712328979e-04 2.4245630073645489e-04 1.3774121733962547e-01  3.5897419178446892e-04 -3.0242024772405610e-03 1.4902143275389609e-01  4.2355404713626992e-03 -5.9235796213681557e-03 1.2454196663531490e-01  1.7814333343113939e-03 -9.3563120575140754e-03 1.3389070606702297e-01  8.4332940004055860e-04 -2.5720856848732150e-03 1.2843411640530145e-01  8.1204337758567467e-03 -7.9380384579007344e-03 1.3142097042133749e-01  7.0996723571287352e-04 -1.3415342299039268e-03 1.4835617474498206e-01  2.9418969416611629e-03 -2.2789320455220189e-03 1.4141773729879298e-01  -1.9924975623340016e-03 -4.1128486221185647e-03 1.3601651689531793e-01  -1.0063918777141591e-03 -1.2162376251394042e-03 1.4596589412557479e-01  1.0405806339391780e-04 2.5975152802884988e-04 1.4307728848135820e-01  -8.3412335746831006e-05 1.3859610880556712e-04 8.5742136081081513e-02  3.4972725526148467e-04 3.0333291814685050e-04 1.2920009669725124e-01  3.2382457383601879e-03 -3.9074790406273341e-03 1.3662316304169247e-01  1.4106121082750672e-03 4.9201649598127221e-05 1.4997548809143132e-01  1.0278903237347741e-04 -1.2499653246524526e-04 1.5729480858919312e-01  2.4984200804731719e-03 1.1881597939620671e-03 1.4962765128259570e-01  8.7768464908763699e-05 7.3299827726362385e-04 1.5300347589414479e-01  -1.8349177216278617e-04 -2.5825591430236124e-04 1.6615039361353603e-01  4.1004203174943192e-04 3.3918878092269503e-04 3.9807356251564251e-02  -2.2466797978575552e-04 -1.7901616677685954e-04 7.4617836643521757e-02  4.8456777999075979e-04 1.2252964680720580e-04 9.6007555614431153e-02  3.5806353296199815e-04 2.6856128584129882e-04 8.1835142133163064e-02  3.1125615198651207e-04 2.7085459114352753e-04 1.5471436353259488e-01  4.5865398978447378e-04 5.6596310864479981e-04 1.3868340092550224e-01  2.9017033293594625e-04 2.5036753290758301e-04 3.9506869821368591e-02  3.4908373434475192e-04 3.1149864433604687e-04 3.9824829395135562e-02  2.3295279249311883e-05 2.4748785235988846e-04 1.6620013558335903e-01  -1.2558445450019785e-03 -1.4275370817799426e-03 4.2817403592209015e-02  -2.1700900867022859e-03 -1.7213628769730894e-03 4.2678242820759674e-02  -1.3417460129531518e-03 -2.3855798095144469e-03 4.3050475018660425e-02  -1.6483303718057888e-03 -1.3868380059245283e-03 7.9682004219783165e-02  1.9641820873879306e-04 3.0134664076943325e-04 3.9229921954383774e-02  1.5594768219670335e-04 2.8421716945012501e-04 3.9468454356345342e-02  1.0818489499312758e-04 1.7149902709738080e-04 3.8963488173959296e-02  7.3990572514032508e-04 2.1340253539249839e-04 9.2729754282646820e-02  -2.6562921288706651e-04 5.2128022036349219e-05 1.4219865447199542e-01  5.7299110698430723e-05 2.3663307922337773e-04 1.5538923533837146e-01  3.7842550492135651e-04 1.0990993923698839e-04 1.5625068850059817e-01  3.7272405105613942e-05 8.5029362327404654e-05 1.4490163665308450e-01  -4.4607307829645266e-05 3.2685661710019870e-05 1.2370833218617527e-01  -1.3267826742236276e-05 1.8757998344439606e-06 1.5632683460605129e-01  -1.9662078967979111e-05 2.1164839650091723e-05 1.5018158028999889e-01  -2.8141756273884891e-04 3.6166980425353341e-04 1.1977311157188372e-01  -2.7628322257872856e-04 -8.6682664694243353e-05 9.1542088101057906e-02  -3.6166624695357749e-03 -8.6418481014597769e-03 1.2078768202696451e-01  5.5721528773479813e-04 -3.5144757647744352e-03 9.5742843676385123e-02  -6.4121558123322146e-03 -5.4992225458119571e-03 1.3469142565716988e-01  -3.0700299394478894e-03 -7.6668046244199393e-04 1.4244785736413704e-01  -1.4848105201642565e-04 -1.6288345731560873e-03 9.4923470135135010e-02  -2.1079827246966542e-03 -2.4408839835877954e-03 9.0375400565102321e-02  -2.3938763967626814e-03 -2.1546802716296614e-03 1.1553871855501843e-01  -3.3025767425184207e-03 -4.6010142426939366e-03 8.9933001807127086e-02  -8.2594354524727489e-06 -1.6039308349935898e-03 1.2559735070466335e-01  -9.9982300470600636e-04 -9.2026284873016116e-04 1.0182983825095648e-01  -3.7937460722816774e-03 -8.9649503887226679e-03 1.3119748403376408e-01  -3.1577870898631586e-03 -2.4663098158614499e-03 1.1793496079155548e-01  -9.6448229513212006e-05 -4.4293658937285806e-06 1.5313428208588864e-01  -8.1042693560502365e-05 -2.8456098323784556e-05 1.3974924427000499e-01  -1.0566722385574503e-04 -4.0648625188313128e-04 1.3578785282468242e-01  -4.9253858512554285e-05 -1.0361637057531531e-04 1.1674730132975125e-01  -2.3110639277162627e-03 -3.0495308789661884e-03 4.2323552686081102e-02  -3.2660993908865131e-05 -1.4200455600089018e-04 1.6736769812812274e-01  -1.7486115094823146e-05 -3.1581195656578349e-05 1.3922488882337475e-01  -6.3927646054216174e-05 2.0118918106302852e-05 1.6492620928068280e-01  -5.7422977424793175e-05 -1.9516304313327767e-04 1.5593737090186596e-01  -7.0933409775775019e-05 -1.1125885687695359e-05 1.3484395740670357e-01  2.8959303871613549e-04 2.0162892465201898e-03 3.9984180571837523e-02  2.5183994703593723e-03 4.8611121261746236e-03 9.1871901060821368e-02  -1.7548424661687702e-03 4.9629802566358112e-03 9.3056758506037993e-02  -2.2067582563990032e-03 1.9180393810518358e-03 9.1847512656854244e-02  -1.9180172292259667e-03 1.9233449999053727e-03 1.3116378485784708e-01  2.3069286499969124e-03 2.5286930190249811e-03 1.2626822657643297e-01  8.2149032637763317e-04 1.5407000493760515e-03 9.0753787779044970e-02  3.7658364615381604e-03 -2.5421598247165433e-03 1.1783256479902161e-01  3.6359242844343160e-03 -5.8413267809540742e-04 1.3822317222961519e-01  2.3980660579841291e-03 2.2693893214931299e-04 1.0533724066136653e-01  2.2868593519462166e-03 -1.5532998452268943e-03 1.2583218128367640e-01  4.1286772538135716e-03 -4.6861190088290585e-05 9.4398890770200833e-02  8.6615733425111051e-03 -9.1055858203993416e-04 1.3253678958494927e-01  5.2528573298325507e-03 -3.9638251711268920e-03 9.1138633262256435e-02  1.8529945809899386e-03 -1.8893667202793548e-03 8.3596490874731380e-02  1.1371806149677219e-03 -1.7961706669166231e-04 1.1697918463674063e-01  1.3340197520134755e-03 -1.1738303523131093e-03 1.3914000067549212e-01  2.8201282081489484e-04 -4.0082622228611878e-04 3.9904652537359628e-02  2.5456795251406917e-04 -3.1131178530907188e-04 3.9422846454168263e-02  5.0281651306820154e-04 -3.2290239060203977e-04 8.1708567281958605e-02  5.1605379509774523e-05 -6.0208718910269949e-04 8.3705318745510959e-02  -4.6459139708976524e-04 3.4283993683988871e-04 1.3691500124643191e-01  5.0991310730325902e-04 1.7262788629970280e-04 1.4383989608517342e-01  -2.0752324698104582e-04 4.4417089943988528e-04 1.6616648796838415e-01  9.1380825919751035e-04 9.2666920787322392e-04 1.5483885133411143e-01  7.0820557770933702e-04 7.0198068651444886e-04 1.4208113891345911e-01  2.9455177190578597e-04 -3.7626060613426003e-04 3.9510362972616932e-02  1.7486239227911096e-04 -3.2547388717239442e-04 3.9175750354426456e-02  4.3928884911966100e-04 1.0205521872541099e-03 1.2932663377742820e-01  -4.1169139143900919e-04 9.6909898231036667e-04 1.5113589584964468e-01  4.3622218153346323e-04 -6.4843775523217950e-04 4.1664016463298377e-02  9.3842177364970576e-04 -7.7995024668346528e-04 4.2186102900283254e-02  6.1481237509187765e-04 -4.9073167522064665e-04 4.1003568240161527e-02  6.0916798615145268e-04 -8.3504689963533778e-04 8.5837976717482820e-02  2.1476373973562928e-03 1.4352636618196577e-03 1.3677423101765154e-01  1.0481603175646027e-03 1.2853864433251217e-03 1.2425378604375462e-01  -5.4868631022086157e-05 4.5831135630949361e-04 1.3190880182904260e-01  8.2098349001810613e-04 6.3312955430961358e-04 9.8384456018168420e-02  5.5386158790300471e-04 7.2596223788592756e-04 1.2050244658776628e-01  2.1918910632825182e-04 1.0261383907561419e-03 1.1535858144840593e-01  -3.7635318415641343e-04 -2.1446302316006447e-04 1.2919530904780696e-01  2.1297145326208640e-04 -7.5557414794725608e-05 7.2713948869354311e-02  -3.0931463676496935e-04 3.0375754690344614e-05 8.0853199949534299e-02  -4.9893332141675645e-05 -5.2836972613395786e-04 1.2233770582348388e-01  -1.5351028610926119e-04 -1.3070274095778868e-04 1.1960679252647950e-01  -3.1046211962910714e-04 -2.5479149282669729e-04 1.0478731092800983e-01  3.2495609837792671e-05 1.4353488895360692e-04 7.1774671177362789e-02  -2.8620996523676269e-04 -2.9414597074385493e-04 8.9746846405623262e-02  -1.2189007347986049e-04 8.8151615775719562e-05 1.3588795540369386e-01  2.6318173566500989e-04 -2.0273507517658105e-04 1.3814475659526715e-01  3.5725634915340268e-05 -4.0446330343403667e-04 1.0517897006888247e-01  4.4308133730854346e-04 -3.5698376369578148e-04 1.4703947495891401e-01  2.8230634823305146e-04 -3.5826408433385507e-05 1.2692040572560689e-01  3.2140337120582107e-04 -5.6459413118280547e-04 1.2355205358239847e-01  -4.0890086551731870e-04 -5.6310203259184763e-04 1.5400260517809797e-01  -8.3989977220166236e-05 -3.3703956252282901e-04 1.5372239956406891e-01  -5.4370431687952088e-04 4.1615274790261536e-04 4.0901604304406966e-02  -3.5926953025975815e-04 3.2148298340374287e-04 3.9908298443463518e-02  -5.1521725168924811e-04 3.9377778275805672e-04 4.0293484543386708e-02  -5.2096628995820478e-04 4.6521723997724671e-04 8.6179619596583268e-02  1.9636288699497280e-03 -2.0196914705423773e-03 4.4501267368014262e-02  9.1096806986816600e-04 -1.1937217129106808e-03 4.3211496133691504e-02  1.9291771455491305e-03 -1.6653301421701309e-03 4.3095436788325829e-02  1.2586982208628601e-03 -2.3122631930830675e-03 4.3668362683437704e-02  3.2483462070220835e-04 -5.4315196363859293e-04 1.4823141419559696e-01  -5.4829920634116742e-03 -7.3426743151469803e-04 1.3444185215336527e-01  -4.6336481807212962e-03 -1.1011918420813392e-03 9.3684219360822232e-02  -9.0195391462278632e-03 -6.4577451020929252e-03 1.0553360639024649e-01  -5.2793852629301318e-03 -1.5914615220895774e-04 1.2770528866909781e-01  6.3721323100833862e-04 -1.0585764074419316e-03 1.2328914396909285e-01  1.8089393704707013e-03 -2.0153597734407286e-03 1.1771628156482260e-01  4.0244456540208181e-05 -2.0204029818437355e-04 3.8551557272657321e-02  3.8930550376102401e-05 -1.8570552145462973e-04 3.8285300391605874e-02  2.1846900998589305e-04 -2.0631024693218913e-04 8.3895139667650817e-02  1.1880317861033848e-04 -1.6565144604588870e-04 9.5809294286627600e-02  3.5322129591944533e-04 -7.4581814411338754e-04 8.8711297772192527e-02  6.6818925822108560e-04 -6.2510167303821943e-04 1.3962546823679969e-01  -2.3879018759984877e-03 -4.3595252340594588e-03 3.8647738949263086e-02  -9.8447905811342045e-04 -1.1844685916742727e-03 4.1993965410315151e-02  -5.9905790559556941e-04 -1.7459678349320427e-03 4.0958752879303797e-02  8.3639925763268253e-05 1.4916135965480426e-04 1.3636009191704235e-01  1.4985810516039064e-05 1.0678784735243468e-04 1.3072349854736565e-01  8.2400088042135320e-05 -1.7025617498710287e-05 1.3002132197696586e-01  1.5003027259141005e-04 -3.4983795967740362e-05 1.0239490305985287e-01  5.5689201359429600e-05 1.8881821725214463e-06 9.2937633599940450e-02  1.1123236076529291e-04 8.0267197123572086e-05 1.3010253248066825e-01  3.4749950159826722e-05 8.3906544251892827e-05 1.5630254521573370e-01  5.1058642413654524e-05 -2.8851144508509487e-05 1.3424485503953770e-01  1.5563151163938958e-05 8.0541171004489906e-05 1.0909071603254647e-01  2.0190459087460394e-05 2.6586866907900645e-05 1.5203582285448297e-01  -2.9343329432139106e-05 -1.0648787835211589e-04 1.0984748090804952e-01  -3.2730549669271746e-04 4.0408208992986504e-04 3.9848545037042334e-02  -2.4019129611342841e-04 3.0341339445044842e-04 3.9506903414366787e-02  -3.3646895822287060e-04 -1.0946025845729022e-04 9.3344497962740317e-02  -1.6436384260653977e-04 -2.1905759916736558e-04 7.2686449107087561e-02  2.3197259797853666e-05 -4.7147133632848867e-05 1.4582751465655175e-01  -7.6404510350935339e-06 4.1453854773017962e-05 1.0519843708940196e-01  -1.3088568656920144e-05 1.8422959271096907e-05 1.5568817364048426e-01  -2.5386371400287977e-04 2.9437665274152766e-04 3.9494915253325547e-02  -2.1523931473132899e-04 2.8483811712893420e-04 3.9112151854100441e-02  3.9738629008478910e-04 1.4367489624767150e-04 1.1773727880380802e-01  8.0601330281588289e-05 -1.6153466007821777e-04 9.4469908936116814e-02  8.7475496842560188e-05 -1.9969484047790363e-05 1.1060268579603678e-01  -2.7428177036170875e-05 -1.5931947849079565e-04 1.0315733587632318e-01  -2.2929512661921934e-05 -2.7171081537209681e-04 1.5397787299282134e-01  -2.2244542644449346e-05 -3.7578813690860281e-05 3.7916110428820142e-02  -1.5103195958471901e-05 -3.8957581973092594e-05 3.7892722807504622e-02  -4.9450961435678774e-05 -9.5623259557766043e-05 3.8063203106257201e-02  -1.2253361863820119e-04 1.1496565257307185e-05 9.3809509669132943e-02  2.8341139356913933e-05 -2.6527298944539494e-05 1.5625685165995240e-01  -7.8043271463151936e-06 -6.5339117544180206e-05 1.5710715359598082e-01  7.1190449499769303e-05 3.5873833993893870e-04 1.3120787693473954e-01  1.6637513343784586e-04 5.0390349335210604e-05 1.4462119983547311e-01  1.2763147695881325e-04 1.4040522687912361e-04 1.4794936336256670e-01  1.5617766018650986e-04 3.4595018700782591e-05 1.3938905440742966e-01  -3.4293101056714480e-04 -3.7939525481101976e-04 3.9895835533463597e-02  -2.2013682316500204e-04 -2.6490555049977604e-04 3.9391554019517189e-02  -8.1544664911855383e-05 -1.1979793017122125e-04 7.4824547729741842e-02  -4.0735075941867390e-04 -7.4524269660893814e-05 8.8869151120959874e-02  -1.7949434949063287e-04 2.0716386705930438e-04 1.2826584332491539e-01  -2.0098862360790621e-04 2.8541878359259441e-04 1.3543928680538958e-01  -1.0955820811900882e-03 -3.5921916330574792e-04 1.5094625576530099e-01  -1.3915220957943855e-03 5.5417340642880503e-04 1.3926391909866287e-01  -2.4960203801717377e-03 3.0539563743574093e-03 1.2105553984419713e-01  -3.0971406448748132e-03 1.3444775053231492e-03 1.2225214037011768e-01  -7.1190549878995578e-03 6.6595304685497765e-03 1.1868192909635568e-01  -1.6236796488583860e-05 4.1455179274418706e-07 1.6321587067187149e-01  -3.0871307082131990e-05 -2.1765800308188998e-05 1.5410676597534337e-01  -1.1313319784710060e-04 5.9484086428693333e-05 1.4225836989784574e-01  5.6813462790077676e-05 1.8845685111766127e-05 1.6738480843937467e-01  -1.6882126144885917e-05 9.8532878566833404e-05 1.4738885269395718e-01  -9.7391753984217647e-05 5.2449714318381659e-05 1.4969430728511945e-01  -7.6378170409616180e-05 4.3158255793139880e-05 1.6094581653043363e-01  6.6405440754374565e-05 -2.1294569926591563e-06 1.3961061375097134e-01  7.0491529600622701e-05 -3.9084729647231409e-05 1.4150151853109505e-01  -7.4918745508088547e-05 -2.3359867079099673e-05 8.7151001825660976e-02  -4.1876499800789463e-05 5.5605569111270704e-05 1.1148764818504403e-01  -2.8019075555319587e-05 3.8663489889753362e-05 1.1522711628400252e-01  2.3110773576707016e-05 -3.0339723059347462e-05 7.7256077508851009e-02  3.0953376596849063e-05 8.5572143076264120e-05 9.1887418471637186e-02  -1.3159835038296279e-05 1.8651540729112848e-04 1.1081678804654881e-01  9.5861122821986870e-05 -1.1601265458945736e-04 9.2547180805565121e-02  8.0592962173521877e-05 1.7332417373613543e-04 8.8004869036435701e-02  3.2677958324570338e-03 -4.8223520638403464e-03 8.2662199690427193e-02  3.8084904694756089e-03 -3.4670029672289764e-03 8.9983164141082594e-02  1.4578654900649329e-03 -1.3260583743101915e-03 7.8195234922838308e-02  8.7807662561470261e-03 -8.1581197324746540e-03 1.1808076567610597e-01  -1.2524641530787308e-02 -6.5096739999568748e-03 1.2220805882644192e-01  -9.4678296667665730e-03 -1.3127648741657783e-02 1.2132808674929324e-01  -1.0039364975580117e-03 5.6632318929173678e-04 4.2311384739578906e-02  -1.6213186293911074e-03 8.5923973395408580e-04 4.2270501364167157e-02  -7.7928294468584470e-04 5.2289641133259094e-04 4.1459174775234704e-02  -8.0615258428772170e-04 5.7448775107087438e-04 8.0288021818430783e-02  3.0359908871801233e-03 -1.2047562824363745e-02 1.2343269999354849e-01  3.6979776243902668e-04 -1.7385112887031332e-02 1.0860709758235232e-01  1.9274177220980591e-03 -7.9382911562755464e-03 9.4580014529898365e-02  -3.8099025699170216e-03 -3.8971292599324068e-03 8.6230428474638701e-02  5.2399497229205401e-03 3.3298630599970774e-03 1.3085494978625797e-01  6.9654313414537500e-03 7.3744428708476702e-03 1.1823884270903780e-01  9.8146134595318082e-03 6.4394896996106208e-03 1.0392396059049766e-01  3.4008775465009583e-03 2.8419361753813962e-03 1.0414696467047370e-01  -1.4166691554031852e-05 -4.4690031320388280e-05 3.7860794669032673e-02  5.2256465934196730e-06 -3.4993647406715248e-05 3.7853788256872002e-02  -4.0698050691200487e-05 -2.7925765900588263e-05 1.0923061538816477e-01  -9.9423881585391323e-04 1.1249504771258174e-03 4.2993348931662650e-02  -2.1054537574700751e-03 1.9208426392022979e-03 4.2587453064958043e-02  -1.7229279469111523e-03 1.5538019640309281e-03 8.4165063999331435e-02  5.5512576450790469e-05 -1.3420966624344853e-04 1.6106097129971139e-01  -5