<?xml version="1.0"?>
<VTKFile type="UnstructuredGrid"  version="0.1"  >
<UnstructuredGrid>
<Piece  NumberOfPoints="857" NumberOfCells="3763">
<Points>
<DataArray  type="Float64"  NumberOfComponents="3"  format="ascii">-0.0182597916573 0.126128911972 -0.119588643312  -0.0077641364187 0.0512270443141 -0.07050477713349999  -0.0237180162221 0.16240182519 -0.053058128804  -0.107877351344 0.105669431388 -0.0502408407629  -0.0444478429854 0.116080775857 -0.00235075876117  0.0393674038351 0.112876079977 -0.0491501875222  0.0248903874308 0.0489483103156 0.000152088920004  0.0314915925264 0.114928804338 0.0218031276017  -0.0657326281071 0.0685198307037 0.0497140102088  -0.0355357266963 0.164656624198 0.0508319064975  -0.010538729839 -0.0422629192472 -0.208358153701  -0.0239527057856 0.0135364839807 -0.242119863629  -0.0194642152637 -0.0775559768081 -0.263431429863  -0.08492307364939999 -0.0108216870576 -0.280446648598  -0.08293507993220001 -0.0361198186874 -0.159778758883  -0.0240796487778 -0.0824203491211 -0.148982465267  0.0430508553982 -0.121076337993 -0.234084427357  0.0307756774127 0.0324950888753 -0.198437720537  0.00352357281372 -0.00433266581967 -0.144715368748  -0.0456651262939 0.08372022956609999 0.342343091965  -0.116630032659 0.0117083769292 0.386158525944  -0.08223126828669999 0.0577075146139 0.289406776428  -0.0511222109199 0.00205342215486 0.300772219896  -0.0125984866172 0.0267426930368 0.351842552423  0.0303636882454 0.0561947338283 0.391145974398  -0.0524924062192 0.0543583929539 0.40361738205  -0.07944945245979999 0.130002260208 0.441037595272  -0.000730989675503 0.119443200529 0.385622620583  -0.078488714993 0.137875169516 0.332541137934  0.0142801422626 0.110509291291 0.27100610733  0.0224165506661 0.08303219079970001 0.331783413887  -0.0170432701707 0.161798536777 0.30022162199  0.000811119796708 -0.0515509881079 -0.08419398218390001  0.0888616070151 -0.015075173229 -0.0776951387525  -0.0989535748959 -0.0518730916083 -0.08125374466180001  -0.0433920919895 -0.09785594791170001 0.0106235472485  -0.0488061010838 0.0295096840709 -0.0131453983486  -0.25 0.25 0.5  -0.166666666667 0.25 0.5  -0.25 0.195066730511 0.445658150344  -0.19506166517 0.25 0.445542865294  -0.0213422998786 -0.126349791884 -0.045622177422  -0.117952652276 0.0158270020038 -0.16616243124  -0.0531469397247 0.0490713231266 -0.13630309701  0.0358348339796 -0.131537660956 -0.134171053767  0.0583617314696 -0.115307979286 -0.0462360456586  0.010585160926 -0.0606908276677 0.314250290394  0.078067921102 -0.133790805936 0.331458956003  0.0206208750606 -0.104583717883 0.36723652482  0.0300164371729 -0.13569638133 0.270959883928  0.0797956883907 -0.07311873137949999 0.388136893511  0.0291880238801 -0.0850581228733 0.220644980669  0.0788302049041 -0.07555303722620001 0.284453928471  -0.0465739220381 -0.108428947628 0.305151432753  -0.056692365557 -0.0812899768353 0.234353885055  0.10282895714 0.0630551427603 -0.0452189296484  0.178613707423 0.153893724084 -0.0703043565154  0.0750898644328 0.130835875869 -0.116260357201  0.0179002508521 -0.0400723591447 0.396018892527  0.07961820065980001 -0.020668130368 0.232235535979  -0.00726175494492 -0.022667773068 0.242156982422  0.0524490773678 0.0171752162278 0.310696065426  0.0103002395481 0.0813155695796 0.107229083776  0.00225681974553 -0.008687185123560001 0.0457225777209  0.177950121638 0.25 0.0405701099774  0.151375159621 0.202163234353 -0.00268407491967  0.13042794168 0.172564610839 0.0599601529539  0.184557154775 0.16295710206 -0.00737970136106  0.0827306732535 0.011830884032 0.0299163535237  0.106673434377 0.0676268041134 0.0663062110543  0.25 0.25 0  0.25 0.177947182503 0.0435581305687  0.0251978598535 -0.0201241951436 -0.0233656335622  -0.25 -0.25 0.25  -0.175495340629 -0.25 0.295351832328  -0.25 -0.175776260788 0.294629825204  -0.164853364229 -0.189889326692 0.246240898967  0.111295968676 0.25 -0.00354384794953  0.0417815256417 0.25 0.0264120515999  0.0577150444892 0.25 -0.0418173710713  0.035034801811 0.196921139956 -0.0497792549431  -0.115254960954 0.0352221727371 -0.0357825122774  0.0360979661345 0.0743419006467 -0.130612716079  0.08110298216340001 0.0143552683294 -0.135737240314  0.0281950440258 0.110801942647 -0.38559025526  -0.000352636008756 0.154027625918 -0.45018479228  0.0220217909664 0.07910815626379999 -0.445265561342  -0.041934799403 0.09297795593740001 -0.440330862999  -0.115356497467 0.128115877509 0.0303980205208  -0.08144567906859999 0.192924261093 -0.0396481454372  -0.0503155887127 -0.140062868595 0.370642662048  0.0181560348719 -0.191118896008 0.319997102022  -0.09442232549189999 -0.0766885429621 0.347179293633  -0.10306725651 -0.0245223585516 0.261891931295  -0.0371639840305 -0.192689821124 0.258922994137  -0.08778057992460001 -0.193450272083 0.293951839209  -0.116932563484 -0.137108251452 0.278956532478  -0.0434515699744 -0.19969072938 0.340430229902  -0.016621209681 -0.143479332328 0.208528921008  -0.0799133181572 -0.177766740322 0.206858798862  -0.0340202823281 -0.07231882214550001 0.405357718468  -0.153045728803 -0.0703692808747 0.28540495038  -0.0647673308849 -0.069349065423 -0.297796696424  -0.0468406006694 -0.118580199778 -0.331259429455  -0.0636249184608 -0.122360698879 -0.235275790095  -0.137311711907 -0.115820750594 -0.279358655214  -0.25 -0.25 0.333333333333  -0.00222280388698 -0.0275516584516 -0.327156513929  0.0233143884689 -0.124395690858 -0.330935031176  -0.00544846989214 -0.0444226972759 -0.392852008343  -0.07202984392639999 -0.0450558848679 -0.379192590714  -0.128861442208 -0.0482712239027 -0.325591087341  -0.0319190612757 0.25 0.27473160228  0.0259018652141 0.196524605155 0.343851953745  -0.0424101948738 0.196461260319 0.324036180973  -0.08801463991400001 0.193724930286 0.280150324106  -0.051391992718 0.129726842046 0.244459152222  0.0793330296874 0.131078347564 0.273738384247  0.0304427426308 0.197590425611 0.258007407188  0.139736711979 -0.103549621999 0.308288753033  0.117407329381 -0.00031748006586 0.284001767635  0.17845864594 0.0137020656839 0.2717012465  0.133446916938 -0.07468281686309999 0.252671837807  0.193237304688 0.0103836003691 0.32706490159  0.108656100929 -0.016409387812 0.370573759079  0.195593327284 -0.0705924406648 0.374003827572  0.204297035933 -0.0882691517472 0.283604085445  0.15987212956 -0.0232784096152 0.211559042335  0.103109702468 -0.0715631917119 0.185957938433  0.25 -0.177950121638 0.0405701099774  0.25 -0.111295968676 -0.00354384794953  0.168315500021 -0.181550845504 -0.0129796266556  0.203061833978 -0.0839376300573 0.0201103240252  -0.123973377049 0.0421161539853 0.0831994190812  0.10652089864 0.041568480432 0.133020982146  -0.00508088478819 0.00464248098433 0.118765294552  0.0384838804603 0.0542355030775 0.219570666552  0.0556482039392 0.09942726045850001 0.165778696537  0.25 -0.25 0  0.25 -0.17904445884 -0.0421267671166  0.0085972994566 0.139411628246 0.206887423992  -0.0427397117019 0.0734880268574 0.199836358428  0.25 -0.25 0.166666666667  0.177338154858 -0.25 0.209433902167  0.178222204231 -0.25 0.126578397361  0.180748909712 -0.154124230146 0.180074676871  0.118582360446 0.0498475395143 0.233844980597  0.113276541233 0.115120351315 0.208414897323  0.068451166153 0.123325429857 0.09300038218499999  0.08695217221980001 0.18308262527 0.11987875402  0.1366494596 0.0978636816144 0.125807240605  0.0170362386853 0.165571182966 0.116205818951  -0.075325883925 -0.13042730093 -0.120773427188  -0.191016584635 -0.1764793396 -0.0778442546725  -0.102759346366 -0.20253264904 -0.07015967369080001  -0.126150563359 -0.115044787526 -0.0573479756713  -0.138729035854 -0.104583211243 -0.134180948138  -0.147993162274 -0.138949289918 -0.203295826912  -0.180331096053 -0.192031860352 -0.160557568073  -0.194399222732 -0.0846866071224 -0.148938387632  -0.11259970814 -0.078034222126 -0.193649172783  0.0326924659312 -0.122268341482 0.0296003930271  0.0215157996863 -0.180560961366 -0.0757267251611  0.0956164896488 -0.0493310950696 -0.0164182558656  0.112129375339 -0.112067811191 -0.105549775064  0.127802968025 -0.106147237122 -0.0110959038138  -0.0854129120708 -0.015297700651 0.056893799454  -0.0204317308962 -0.0795602425933 0.117458000779  -0.178222204231 0.25 0.126578397361  -0.177947182503 0.25 0.0435581305687  -0.107976816083 0.25 0.0905854563709  -0.157577678561 0.178241759539 0.0969507619739  0.25 -0.25 0.333333333333  0.25 -0.25 0.25  0.175776260788 -0.25 0.294629825204  0.25 -0.175495340629 0.295351832328  0.0932372882962 -0.0430554822087 0.0724518448114  -0.044769000262 -0.00661279587075 0.403999477625  -0.194478780031 -0.0247275307775 0.332954645157  -0.173761367798 -0.0806607827544 0.396263659  -0.137637495995 0.00523930834606 0.315887242556  0.0864742994308 -0.139340251684 0.176064118743  0.105438224971 -0.136641919613 0.253711819649  0.0308670303835 -0.25 -0.136809572586  0.0367561832589 -0.25 -0.219583441074  0.0925811678171 -0.20055809617 -0.19996842742  0.0127155454829 -0.193433105946 -0.225977659225  0.0415658205748 -0.200880005956 0.196522325277  0.0373581312597 -0.119548290968 0.120048768818  -0.0954102815882 -0.25 0.346414074494  -0.101368582479 -0.25 0.251933327382  -0.0374909392175 -0.25 0.286229296012  0.0852289572358 0.109103307128 -0.27055695653  0.07707493752239999 0.127253636718 -0.199824258685  0.128097131848 0.07648140937090001 -0.209757223725  0.154867321253 0.13628205657 -0.212952241302  0.08678253740069999 0.189277544618 -0.274375885725  0.127699971199 0.0803090333939 -0.326344817877  0.0577741526067 0.0601542405784 -0.31936660409  0.0525139421225 0.129102528095 -0.326874881983  0.0251371748745 0.175572559237 -0.261228203773  0.0199144631624 0.0927290171385 -0.265960127115  -0.148952946067 -0.121583275497 -0.374568909407  -0.25 0.177950121638 0.0405701099774  -0.25 0.111295968676 -0.00354384794953  -0.175531774759 0.135734900832 0.0562076568604  -0.178730383515 0.191659659147 -0.00562386959791  -0.0244714934379 -0.108516678214 -0.387223660946  -0.09279609471560001 -0.170035287738 -0.445968538523  -0.0281062982976 -0.0
[...]
<PointData  Vectors="f_78"> 
<DataArray  type="Float64"  Name="f_78"  NumberOfComponents="3" format="ascii">4.6853196102133859e-06 2.4547649035169311e-06 -4.6259170671119369e-03  -1.8316189247061784e-06 2.6865356506046646e-06 -4.6762565547751279e-03  1.0181958107255675e-06 -5.0854252250927577e-06 -4.4522912636248404e-03  -1.4691863251496240e-05 6.5369899590584037e-06 -4.2718228713759798e-03  -1.0634439727516018e-05 2.5678038500891426e-06 -4.6072008012620165e-03  9.9068904246930787e-07 9.4702538066268223e-06 -4.4663771370652468e-03  -3.1812708261343913e-06 3.0323658631070263e-06 -4.7078527333823707e-03  -1.6096073454478446e-06 6.2808790293403594e-06 -4.4290697152141699e-03  -8.2987331054421249e-06 -2.5181372951148563e-06 -4.6610264224154442e-03  -5.3372852612175777e-06 2.1505107277283247e-06 -3.8794308373549741e-03  -1.3985851060319463e-06 5.1442576807612334e-06 -4.7252234367181562e-03  -1.7697671679511221e-06 -1.3576328928857996e-07 -4.7096327348321951e-03  8.6873647280423258e-07 6.1334402888248128e-06 -4.6660158149307730e-03  -1.1199784081535748e-06 4.9931747092245988e-06 -4.6767820466681988e-03  2.8552688679457456e-06 3.7929502758926720e-06 -4.6309140357368994e-03  1.4160276721310026e-06 1.2029850960078273e-06 -4.6285259196919360e-03  6.7196380005547225e-06 4.1237566847799931e-06 -4.4435608088269620e-03  2.5504646165141015e-06 1.2734407592854204e-06 -4.7164861159251694e-03  2.2050524409254226e-06 8.6273520814652594e-07 -4.7049774959685266e-03  -1.5019668392484324e-05 4.5546743395087988e-05 -4.7859397123531247e-03  -7.8979292970083852e-05 1.6651601283764211e-05 -4.6478715688493509e-03  -1.9887967799436973e-05 2.2129937428465370e-05 -4.6308481229915942e-03  -1.7898808770258820e-05 1.5566694037976544e-05 -4.7565190558193499e-03  -9.0160119529634990e-06 5.3484900902234405e-06 -4.8043619826967660e-03  4.1223528076132615e-05 2.5344650809833545e-05 -4.8166087327738624e-03  -2.7295959444548805e-05 5.4882178810099879e-05 -4.9613515166895784e-03  -1.9991333678680585e-05 1.3673744893077179e-04 -4.1291078816856237e-03  -6.1400903749011701e-06 1.1434460632178675e-04 -4.3958727999962501e-03  -5.1991778085958630e-05 6.0956967559210233e-05 -4.5831763795970175e-03  -8.7495489425000854e-06 2.0170694287657756e-05 -4.6756685421037031e-03  5.6885211553648836e-06 4.4512485971482426e-05 -4.6754962580874233e-03  -3.6748563087918615e-06 1.9926521879858334e-05 -4.6793958312991799e-03  -1.9531668270018599e-06 2.2836283163827918e-06 -4.6789574037152453e-03  -3.0236921786184193e-06 -1.1843316647776723e-07 -4.5644996022877748e-03  -5.9129444271262148e-06 -1.5857728984541533e-06 -4.5511472264749084e-03  -7.9770982783903392e-06 1.7583468030846417e-06 -4.6313248418820025e-03  -3.5042859894077379e-06 3.3384565973736939e-06 -4.6621338951589753e-03  7.6866565802547808e-06 -4.7885894413542456e-06 1.6464685589027573e-05  5.1506338925762246e-06 -9.1429855448386639e-06 9.8471092276064813e-06  7.2289022718518363e-06 -2.1004261926090430e-07 1.1155703648710237e-05  1.6769909296842595e-06 -2.1067798540801944e-06 7.2860461361468474e-06  -7.3081697539238288e-06 4.1226117135694168e-06 -4.3610749602193410e-03  4.7239370222569530e-06 5.3341585754150240e-06 -4.5944209371665433e-03  1.3956108495419597e-06 3.9765630438277655e-06 -4.6881569581745724e-03  1.2099867523280216e-07 -9.8899984264144009e-07 -4.5826504019911944e-03  -1.3913747382843918e-07 -2.8671621348162453e-06 -4.4184013598147836e-03  -1.3179535679016426e-06 -7.5909136363046298e-06 -4.7946184428900949e-03  -3.4826125325660959e-06 -2.5645351602439515e-05 -4.5781989960111021e-03  -4.2822438594407962e-05 -4.7860156973119594e-05 -4.6656156853079516e-03  -1.2118633916152414e-05 -3.9309089431830454e-06 -4.4644147798822212e-03  4.5852591280535175e-05 -4.5653345791920913e-05 -4.6902800123760626e-03  -6.4380146904320518e-06 -4.3147651835208179e-06 -4.6975933994567922e-03  -2.5564259546365739e-07 1.0410870538927952e-06 -4.6484191223250954e-03  -2.1417428049737164e-05 -2.3600682926702437e-05 -4.4444085160414860e-03  -1.6988968498962059e-05 -4.7081496687399612e-06 -4.6450142403961399e-03  -5.4448688859867644e-06 8.9417156641233284e-06 -4.4749834918817039e-03  1.6387562965022839e-05 2.7845565477295640e-05 -2.9350708377231735e-03  7.1701544234564109e-07 9.9959172802758637e-07 -4.1106976171711874e-03  -9.1080391097519359e-06 9.6163510042385030e-06 -4.9293018035392339e-03  -1.6357718094016713e-06 3.5896528989566917e-06 -4.6787171023851583e-03  -5.5595138888781693e-06 5.0756116729406150e-06 -4.7286971747163417e-03  6.4679298873371039e-06 1.7307741448170288e-05 -4.7539795594268080e-03  -3.5811629959851855e-06 5.5401224622141554e-06 -4.6132244508471937e-03  -5.8772539311904743e-06 2.1070897761091413e-06 -4.7317590379878840e-03  2.2713120552218625e-06 -6.8584962328648193e-06 -7.5654279278712158e-08  4.0507074120082620e-05 -2.2859016141300430e-06 -2.8803950420205533e-03  -1.7724428760923679e-05 -8.2282065627291015e-06 -3.5315140340967531e-03  -1.7693746491032801e-05 -1.3462674011449081e-07 -3.0027105823834791e-03  -3.4100422236279050e-06 7.8132727518277436e-06 -4.6530819837459145e-03  -6.6814632076145753e-06 6.9176473202134457e-06 -4.5951114439338235e-03  6.6608057040894452e-06 6.6217577347027274e-06 1.8170154342952916e-06  -7.0549278685954759e-06 1.6236346054127385e-06 -4.8578113950727962e-07  -2.9503501386722696e-06 1.5510994943275346e-06 -4.7209999007395914e-03  -9.7696180734368516e-06 -6.7017601420800357e-06 -2.3967474429800686e-06  -2.2093106621998300e-06 6.7305199803995228e-06 1.8588572291993669e-08  1.0271599064148000e-05 -1.3748641362060154e-07 -5.7033162294023470e-08  -8.5234659053639801e-07 -2.3110941418137670e-05 -2.2215221820097966e-03  1.8020980508281242e-06 1.6730646497994569e-06 2.5744704946086609e-06  -4.3262716412377757e-07 -4.4983442299588088e-07 4.8867131049899853e-07  3.1064586587872413e-07 -1.2815873327013798e-06 7.4404842022465313e-07  -4.3455528965787681e-06 1.2339890993824446e-05 -3.4179095168581294e-03  -1.1369372978849314e-05 -6.0637066909532545e-07 -4.4434441040194800e-03  1.4025172881054867e-06 9.8780316821662502e-07 -4.6670244201362249e-03  5.0188849749300678e-06 2.2851783312907593e-06 -4.6017181728899639e-03  -3.6375957995664412e-06 -1.0285129920214112e-05 -4.5160010917563043e-03  1.1440823054342558e-05 -3.2081862325329768e-05 -3.5196672834000770e-03  2.4718170011948480e-06 -3.9829832602131225e-06 -4.6673775161834349e-03  5.0985164240046831e-06 -2.3810381284946874e-05 -4.5119820964723270e-03  -3.6195028965933866e-06 -8.6079097662978298e-06 -4.2689745448019597e-03  -3.4651646919942621e-05 2.0950581670137066e-05 -2.9962655650109769e-03  -5.4750537827975134e-06 -6.4422873946642161e-05 -4.3191935024693776e-03  -1.2162004062530700e-05 -3.6494996897451967e-06 -3.5958492907194051e-03  -3.5821225497177342e-05 -2.2264045997968898e-05 -4.4198916254486230e-03  -1.8798503714346366e-05 -4.7662049704651281e-06 -4.6384035109007645e-03  -2.8873707823158002e-05 3.2311163115265642e-06 -3.5306991290961049e-03  -2.8638780792837946e-05 -8.1034583262024965e-05 -3.2498836408367329e-03  -3.8242658024907028e-05 -2.4848972735968627e-05 -4.1208544467927115e-03  1.7881488014478905e-05 -3.4729827577934234e-05 -3.1769524699902206e-03  -4.7524302586302949e-06 3.6875373691994210e-06 -4.6426006359954371e-03  -6.5571439854214913e-06 1.6474008371810493e-05 -3.7886913093913748e-03  -4.1824665901229189e-05 -1.7543050438764918e-05 -4.7594827704139312e-03  -8.4169300423593327e-06 1.0783613532429974e-05 -3.5484939383603441e-03  1.9681411391608686e-06 7.6500697930318576e-06 -4.6286715339148299e-03  2.2008557652186365e-06 7.1011458770237025e-06 -4.4493005182137200e-03  2.6016519953076852e-06 -1.4274970724760512e-06 -4.3657795565835589e-03  8.2392414953254041e-07 1.3340406712101878e-05 -4.1987617185055229e-03  -1.2324494293799687e-06 -1.8222473496415042e-06 4.2377080774331232e-06  2.6574112280589186e-06 2.4171216685226616e-06 -4.6913925661152970e-03  -3.5118710551705352e-06 1.0107930291576532e-05 -4.6151368873474877e-03  1.9820263098328374e-06 1.3149378171047512e-05 -4.6313857281666190e-03  1.9855815809252892e-06 9.1214333346652813e-06 -4.5479311499282424e-03  7.5246528826905073e-06 1.6087836776504766e-06 -4.2421177757237302e-03  5.5682421946275791e-07 2.0595243085943524e-06 -8.3263498325689584e-08  2.3454333078644536e-05 8.1828404194748773e-05 -3.7166310941697069e-03  -3.7788379743389340e-05 1.1034700092139908e-04 -2.9171221090192306e-03  1.8593491298783214e-05 3.0523093433203547e-06 -2.9902981988117524e-03  -8.6762533998135763e-06 1.9743909853860623e-05 -4.5855412799489939e-03  -8.1368522592636808e-07 1.9800512816914062e-05 -4.2419397622596635e-03  5.3293473912511542e-06 -3.2155932994830197e-05 -3.6702353064852781e-03  3.0451317323093925e-05 -4.0725817931821537e-06 -4.3287591200308027e-03  1.3761926173048940e-05 2.4649186552491622e-05 -4.6408238889507772e-03  -4.0267317295032521e-06 9.9022795436766955e-06 -3.5996979855530417e-03  -2.1123778278060617e-05 1.7451434663085467e-06 -3.9980826690061491e-03  8.3246332075943992e-06 8.3946468589709907e-06 -3.5818695066911813e-03  6.0551626734892035e-05 1.7817711635378818e-05 -4.5812804733540973e-03  9.9311037784729499e-05 2.7202261288225954e-05 -3.2507102917514233e-03  1.1931895307436473e-05 3.4351658352901522e-05 -3.6632159775352086e-03  -1.7322166539106549e-05 7.6221432549956904e-06 -4.4019147558646381e-03  -1.1196372182891583e-05 3.0846553843599994e-06 -4.3111975471782863e-03  -1.2782648839456088e-06 -3.4137390471913692e-06 -1.4454564808808157e-06  3.7037603230569627e-06 3.2009214141472431e-07 -1.9039237712697360e-06  -4.2993731416622126e-05 3.6529731838892366e-05 -2.8255924760239412e-03  2.8137801204611335e-05 -9.6913818338333056e-06 -2.8527214811173407e-03  7.0726409874827702e-06 4.4475048773208044e-06 -4.4124595677308412e-03  3.1232538752508779e-06 7.0039894968583038e-06 -4.5185462639354300e-03  -4.1877597065267902e-06 4.4993282940370600e-06 -4.6929150599035897e-03  -1.7290111497673504e-06 1.0700954699794771e-05 -4.6980689855640441e-03  -2.2697931042475674e-07 5.0952762278630313e-06 -4.6431903703143020e-03  4.3196279289687209e-06 -6.3387038136775757e-06 3.5376623358255656e-06  -1.1276520418924917e-05 -1.1822865712591703e-06 -2.7711883642425381e-06  -5.7780414425748319e-07 2.4425785901977222e-06 -4.2080603975296529e-03  -5.3514978264363430e-06 1.2515202425856958e-05 -4.6340510401591340e-03  7.2687343538705076e-06 -8.6785869945958532e-06 -8.3183138920693265e-07  2.2757172650904317e-06 6.2211688707542064e-06 -5.7057827928277271e-07  1.8576340695525793e-06 8.9469014147656832e-06 2.2163970174796821e-06  -6.9604802363601063e-06 1.7352803319038699e-05 -3.3109287099576620e-03  6.7999132217348539e-06 1.8442107838052077e-05 -4.4517034359627776e-03  5.4012090000721974e-06 8.8850203137385441e-06 -4.0571005938580696e-03  -2.2111560498238804e-06 5.8626406084507735e-06 -4.4383913300031705e-03  8.2301796706686111e-06 -9.0542180398516751e-06 -3.5327746148192756e-03  -4.8753128808575301e-06 -1.5423255809446015e-05 -3.7901838502469379e-03  2.2250059029292883e-05 9.5011364907977149e-06 -3.6184114577325049e-03  -3.9678604874292933e-06 6.7184060334202919e-06 -4.2554029459744274e-03  -2.1991656359787925e-05 -1.9064755267109771e-05 -3.1017231552565262e-03  9.8497533915535887e-06 -2.7250681977706863e-05 -2.7772931330878924e-03  -1.9694714740379564e-05 -1.8764056952649857e-05 -4.1373221463369188e-03  5.2066418362090392e-06 1.1350649935661808e-05 -3.9723365335027384e-03  7.3607476812751046e-06 3.8921942440451013e-07 -4.0971261151749386e-03  2.3049918006369166e-05 9.6939296131087406e-06 -2.7380800015942941e-03  -3.1444221976739106e-05 -3.5687436348666969e-05 -3.1928606978230355e-03  2.9353038435941036e-06 6.8234408211438655e-07 -4.4289484616259209e-03  -5.6293228627145881e-06 -2.5692011652001901e-06 -4.4488592236246521e-03  -8.5764132988613049e-06 7.1145243157346626e-06 -2.8365520248199217e-03  5.7362368921297839e-06 -2.7999295033548573e-06 -4.5076722781877592e-03  2.3146502670937316e-06 -6.7827385590576610e-06 -4.2200040551173814e-03  -1.8633227627794219e-06 7.5647140470698603e-06 -4.2018508746460171e-03  -2.9659288498319704e-06 -4.0964834570326895e-07 -4.6469810649981394e-03  -7.5996992793558994e-06 -6.5266444077829313e-07 -4.7025795474302670e-03  -2.2369845461806552e-06 -8.2859212808056696e-06 9.5397565094030913e-07  -9.9816288383885205e-07 -1.0426746565455887e-05 2.0017494089909191e-07  3.7106764068570462e-06 3.2683057457158645e-06 1.7414360855720034e-06  1.2345311779393743e-06 -1.9121856345030421e-05 -3.1260454820128082e-03  7.3467877410359193e-06 -4.3377338847674674e-06 1.1194638397335058e-06  5.0969103633070612e-06 -8.1401251430334261e-06 -1.1088576651661776e-06  1.7657852864337815e-06 7.2234570107160250e-06 -7.0084632919298632e-08  -6.3448504310966806e-06 -2.2998436540099727e-06 -1.5462640426339929e-06  -8.9410275389197001e-06 3.2655583960207536e-06 -4.5803877007103734e-03  -2.8366149063937723e-05 4.0932428312984420e-06 -4.8777900069669521e-03  -4.4072960037663876e-05 -3.9304705451947402e-05 -2.7982946829112807e-03  -1.0202856666815242e-04 -3.5003571684179220e-05 -3.7732409123903193e-03  -3.1899855972882539e-06 -3.9758479215689781e-06 -4.3768332277445005e-03  -7.2597112140341942e-06 8.8474675330714958e-06 -4.1742380899142863e-03  -2.6485772766848220e-06 -8.7159051941746589e-06 -4.3402901979417083e-03  2.5337021823583424e-07 -1.8193903697761956e-06 1.3649181506124129e-06  1.9499130548234811e-06 5.7516268239270679e-06 1.8703709031499847e-06  2.2641719094446961e-05 -4.8935050160899663e-05 -2.9573605567919017e-03  -6.8043477124953411e-06 -1.1837862251755243e-05 -2.5625412117833441e-03  -9.1522963342012974e-06 -1.0245141470156054e-05 -3.7996726862009286e-03  -2.7524602254612297e-06 1.0106584344397603e-05 -4.3853300483453345e-03  4.3222692912860234e-07 6.8862879781977795e-06 3.0005229962196050e-06  1.2680261482517093e-06 -1.9188967969576260e-06 6.9144874129078276e-07  -1.1852190736565396e-06 -3.5774284865885863e-06 -1.9348236118853778e-07  7.9196493651607454e-06 -2.1190587139297658e-06 -4.5846511674039088e-03  3.4811813335858624e-06 -5.5812161014159947e-06 -4.5290605949371036e-03  6.7727403946544924e-06 3.0865339718210198e-06 -4.3508977530927473e-03  2.8655225189157522e-05 1.2638820756560360e-05 -4.0218785432994978e-03  2.0788811664698240e-06 -1.0380190508262893e-05 -3.7990782665862071e-03  1.5985372112493659e-06 -1.1897554834466002e-06 -4.4698258281348170e-03  1.1595018621941385e-06 -4.3034094936305845e-06 -4.6562104169809966e-03  -5.6549203702330050e-06 -1.0765235727344966e-05 -4.1637331420975371e-03  -6.0175060766898469e-07 -4.1275196619339884e-06 -4.4848638441640949e-03  9.4011907689755683e-07 -1.4476157683666769e-06 -4.6622751495109683e-03  1.5066154969385200e-05 -3.6542047977271474e-07 -4.1497198949744145e-03  7.4324997032564459e-06 3.7530428954601504e-07 9.2813923450572163e-07  -6.3713288683357600e-06 -2.1432778136359517e-06 9.0072576301306991e-07  1.0614513651050034e-05 -2.2957264525898619e-05 -2.8901503219836344e-03  -1.2869848131768199e-05 -8.9173994614102316e-06 -2.9484553660426719e-03  5.6321752115659542e-07 4.3700919747659535e-05 -4.3236279586188813e-03  4.8712743834999716e-06 2.3631872757615985e-05 -3.9588647499310074e-03  8.2674723601099963e-06 2.1149720533011582e-05 -4.5760802623309874e-03  -8.8519376266874856e-06 7.3407063515604467e-06 6.8655849932589088e-07  8.6617034107651078e-06 1.0131079284145801e-06 8.5414328121949926e-07  6.7861393631902469e-06 -1.1838948495379005e-05 -4.6050270665269925e-03  7.7820648502312601e-06 1.1721706806940295e-06 -3.4459485488662505e-03  -6.4033951403678267e-06 -1.1244056648521197e-05 -2.9864580070189527e-03  -5.7488513122787006e-06 1.3379968426440926e-05 -3.9386433446128776e-03  2.8203587485138483e-06 2.6738778539239583e-06 -4.6783466036256147e-03  6.5082684606590335e-07 8.0794960582110334e-07 -4.2514615494918653e-06  4.8248706833761863e-08 1.6254350732394882e-06 -2.7144373207193182e-06  -5.3740766389814227e-07 -1.6746494466558666e-07 8.2207408072617482e-07  9.1406996533894885e-06 -7.2185700426497202e-06 -3.5450489262261573e-03  4.4670223052942835e-06 1.9759263610616723e-06 -4.6670498094881618e-03  2.0993000240107480e-06 3.0389382163648789e-06 -4.6784565109885181e-03  -1.4529940147484436e-06 -2.5171955295730451e-07 -4.1397516347745807e-03  1.1279563320287681e-05 1.8951687887234537e-06 -4.5978007950055197e-03  -3.2555930266100733e-07 -4.1471220635336136e-06 -4.6492665876516313e-03  -1.2865278276098946e-06 -1.1882718874605114e-07 -4.5351918977030977e-03  -1.9209188160785506e-06 5.3231999914008048e-06 4.0728332876290482e-07  1.9297630697430896e-07 -4.2328204846806872e-06 1.0246796848572515e-07  3.4646333965550000e-06 -9.0386617224847707e-06 -3.0363682388475266e-03  1.7171715879265499e-06 -7.1099880690180566e-07 -3.3130353767281185e-03  1.3750806641571977e-05 -1.5654985223437948e-06 -4.5671475595639886e-03  6.5286823928068314e-06 -2.7027810599865285e-06 -4.4723250416839637e-03  -1.1977877835356432e-05 -2.2396276354621777e-06 -4.6357405264906334e-03  5.2379126397191518e-07 3.0523147003569172e-07 -4.2823309042247055e-03  -1.3932602955334046e-05 1.6825855865871151e-05 -4.0690886950227002e-03  -2.1623127556626465e-05 2.2542065487218935e-05 -4.3534719013099445e-03  -6.4267119015411824e-05 6.3457950171962147e-05 -4.2807571171577952e-03  1.0331312212282882e-05 2.4409787534353727e-06 -4.6724096160670027e-03  2.1220927429924850e-05 1.1313272552929726e-05 -4.6544528780528205e-03  2.0001523444254982e-05 4.1821472272761857e-06 -4.3320360519583561e-03  1.2994139226895076e-08 -7.8327637142582297e-07 -4.6866134929308143e-03  1.9431063652982920e-05 -6.2435620142888191e-06 -4.4991575514727843e-03  5.7527846319775565e-06 -8.9610904207222108e-06 -4.6250498830745996e-03  2.3463222275655412e-06 -5.3891185187036847e-06 -4.6780124301304526e-03  6.1056543355131350e-06 2.8305150659847903e-06 -4.4607903128026979e-03  -9.9639511412180215e-06 8.0156568278578199e-07 -4.3045651833176525e-03  5.7531892150899386e-06 -1.5065351846609049e-05 -2.6821114459437199e-03  -3.2631152131502884e-06 -1.0962507552475791e-05 -4.1379927042141766e-03  -1.3239085024364119e-05 -1.1593926202543142e-05 -4.5206359912374778e-03  -2.2834172285494667e-06 9.4873867603735215e-06 -3.8804045617757462e-03  -1.2223218888485177e-06 1.9726559046207134e-05 -3.5247752060623061e-03  -1.2894735528372333e-05 -4.3569859227103832e-06 -4.0578075457969546e-03  -1.3596700987827304e-05 -1.0207379705695311e-05 -4.1510191277331823e-03  -2.5372312489250480e-06 1.1025518881603042e-05 -3.4463252189537242e-03  6.0579657125301951e-05 2.1285447365826777e-05 -3.0571866518833146e-03  -8.0252781633760205e-06 7.3736857729605784e-06 -2.7425780187806852e-03  5.0701394956011890e-06 -1.3261968212951747e-05 -3.2650521333528410e-03  4.3285406153003451e-05 -1.6469950416109224e-05 -4.3326425720845840e-03  -1.6170611923024209e-04 -2.6851312720865680e-05 -4.1680177912652924e-03  -9.0884776188621182e-05 -6.3291065486403532e-05 -3.8651612222507571e-03  -1.0263691383027576e-06 -7.8171238697107633e-06 -1.6165458120047114e-07  -1.0925439987401580e-06 -6.5555820860396547e-06 -1.2449740908479348e-06  1.1971168863919060e-06 7.4095545247455905e-06 1.2609760649320537e-06  -2.0795589977213828e-05 -9.4613159989619958e-06 -3.2361032488276045e-03  2.8899852654239507e-05 -3.8995146530247024e-05 -4.3068134671754117e-03  -1.0608664997434581e-05 -1.6720512940159843e-04 -3.7391177589303631e-03  -2.8885391053166769e-05 -9.2480707205256523e-05 -3.5564429907943870e-03  -2.9411961179835749e-05 -1.2175424774019882e-05 -3.1127436681268345e-03  3.0898950361105087e-05 2.3269345122300777e-05 -4.5365619702488419e-03  5.8560025130401925e-05 6.1880720915272625e-05 -4.2750778794608786e-03  1.8847079606501303e-04 8.8728592346280317e-07 -3.0976312907337387e-03  2.7872254529766571e-07 8.9252529450844371e-06 -3.4219989141648847e-03  2.1018661365852813e-06 4.2473693398514681e-06 -5.0838980144547596e-06  -1.0902716038093891e-06 4.2313279437334720e-06 -4.3593138557030652e-06  6.0569511467191719e-06 5.7852108165934306e-05 -3.6690883394780590e-03  -5.7087697269167369e-06 8.7329326824753994e-06 -1.017726