<?xml version="1.0"?>
<VTKFile type="UnstructuredGrid"  version="0.1"  >
<UnstructuredGrid>
<Piece  NumberOfPoints="857" NumberOfCells="3763">
<Points>
<DataArray  type="Float64"  NumberOfComponents="3"  format="ascii">-0.0182597916573 0.126128911972 -0.119588643312  -0.0077641364187 0.0512270443141 -0.07050477713349999  -0.0237180162221 0.16240182519 -0.053058128804  -0.107877351344 0.105669431388 -0.0502408407629  -0.0444478429854 0.116080775857 -0.00235075876117  0.0393674038351 0.112876079977 -0.0491501875222  0.0248903874308 0.0489483103156 0.000152088920004  0.0314915925264 0.114928804338 0.0218031276017  -0.0657326281071 0.0685198307037 0.0497140102088  -0.0355357266963 0.164656624198 0.0508319064975  -0.010538729839 -0.0422629192472 -0.208358153701  -0.0239527057856 0.0135364839807 -0.242119863629  -0.0194642152637 -0.0775559768081 -0.263431429863  -0.08492307364939999 -0.0108216870576 -0.280446648598  -0.08293507993220001 -0.0361198186874 -0.159778758883  -0.0240796487778 -0.0824203491211 -0.148982465267  0.0430508553982 -0.121076337993 -0.234084427357  0.0307756774127 0.0324950888753 -0.198437720537  0.00352357281372 -0.00433266581967 -0.144715368748  -0.0456651262939 0.08372022956609999 0.342343091965  -0.116630032659 0.0117083769292 0.386158525944  -0.08223126828669999 0.0577075146139 0.289406776428  -0.0511222109199 0.00205342215486 0.300772219896  -0.0125984866172 0.0267426930368 0.351842552423  0.0303636882454 0.0561947338283 0.391145974398  -0.0524924062192 0.0543583929539 0.40361738205  -0.07944945245979999 0.130002260208 0.441037595272  -0.000730989675503 0.119443200529 0.385622620583  -0.078488714993 0.137875169516 0.332541137934  0.0142801422626 0.110509291291 0.27100610733  0.0224165506661 0.08303219079970001 0.331783413887  -0.0170432701707 0.161798536777 0.30022162199  0.000811119796708 -0.0515509881079 -0.08419398218390001  0.0888616070151 -0.015075173229 -0.0776951387525  -0.0989535748959 -0.0518730916083 -0.08125374466180001  -0.0433920919895 -0.09785594791170001 0.0106235472485  -0.0488061010838 0.0295096840709 -0.0131453983486  -0.25 0.25 0.5  -0.166666666667 0.25 0.5  -0.25 0.195066730511 0.445658150344  -0.19506166517 0.25 0.445542865294  -0.0213422998786 -0.126349791884 -0.045622177422  -0.117952652276 0.0158270020038 -0.16616243124  -0.0531469397247 0.0490713231266 -0.13630309701  0.0358348339796 -0.131537660956 -0.134171053767  0.0583617314696 -0.115307979286 -0.0462360456586  0.010585160926 -0.0606908276677 0.314250290394  0.078067921102 -0.133790805936 0.331458956003  0.0206208750606 -0.104583717883 0.36723652482  0.0300164371729 -0.13569638133 0.270959883928  0.0797956883907 -0.07311873137949999 0.388136893511  0.0291880238801 -0.0850581228733 0.220644980669  0.0788302049041 -0.07555303722620001 0.284453928471  -0.0465739220381 -0.108428947628 0.305151432753  -0.056692365557 -0.0812899768353 0.234353885055  0.10282895714 0.0630551427603 -0.0452189296484  0.178613707423 0.153893724084 -0.0703043565154  0.0750898644328 0.130835875869 -0.116260357201  0.0179002508521 -0.0400723591447 0.396018892527  0.07961820065980001 -0.020668130368 0.232235535979  -0.00726175494492 -0.022667773068 0.242156982422  0.0524490773678 0.0171752162278 0.310696065426  0.0103002395481 0.0813155695796 0.107229083776  0.00225681974553 -0.008687185123560001 0.0457225777209  0.177950121638 0.25 0.0405701099774  0.151375159621 0.202163234353 -0.00268407491967  0.13042794168 0.172564610839 0.0599601529539  0.184557154775 0.16295710206 -0.00737970136106  0.0827306732535 0.011830884032 0.0299163535237  0.106673434377 0.0676268041134 0.0663062110543  0.25 0.25 0  0.25 0.177947182503 0.0435581305687  0.0251978598535 -0.0201241951436 -0.0233656335622  -0.25 -0.25 0.25  -0.175495340629 -0.25 0.295351832328  -0.25 -0.175776260788 0.294629825204  -0.164853364229 -0.189889326692 0.246240898967  0.111295968676 0.25 -0.00354384794953  0.0417815256417 0.25 0.0264120515999  0.0577150444892 0.25 -0.0418173710713  0.035034801811 0.196921139956 -0.0497792549431  -0.115254960954 0.0352221727371 -0.0357825122774  0.0360979661345 0.0743419006467 -0.130612716079  0.08110298216340001 0.0143552683294 -0.135737240314  0.0281950440258 0.110801942647 -0.38559025526  -0.000352636008756 0.154027625918 -0.45018479228  0.0220217909664 0.07910815626379999 -0.445265561342  -0.041934799403 0.09297795593740001 -0.440330862999  -0.115356497467 0.128115877509 0.0303980205208  -0.08144567906859999 0.192924261093 -0.0396481454372  -0.0503155887127 -0.140062868595 0.370642662048  0.0181560348719 -0.191118896008 0.319997102022  -0.09442232549189999 -0.0766885429621 0.347179293633  -0.10306725651 -0.0245223585516 0.261891931295  -0.0371639840305 -0.192689821124 0.258922994137  -0.08778057992460001 -0.193450272083 0.293951839209  -0.116932563484 -0.137108251452 0.278956532478  -0.0434515699744 -0.19969072938 0.340430229902  -0.016621209681 -0.143479332328 0.208528921008  -0.0799133181572 -0.177766740322 0.206858798862  -0.0340202823281 -0.07231882214550001 0.405357718468  -0.153045728803 -0.0703692808747 0.28540495038  -0.0647673308849 -0.069349065423 -0.297796696424  -0.0468406006694 -0.118580199778 -0.331259429455  -0.0636249184608 -0.122360698879 -0.235275790095  -0.137311711907 -0.115820750594 -0.279358655214  -0.25 -0.25 0.333333333333  -0.00222280388698 -0.0275516584516 -0.327156513929  0.0233143884689 -0.124395690858 -0.330935031176  -0.00544846989214 -0.0444226972759 -0.392852008343  -0.07202984392639999 -0.0450558848679 -0.379192590714  -0.128861442208 -0.0482712239027 -0.325591087341  -0.0319190612757 0.25 0.27473160228  0.0259018652141 0.196524605155 0.343851953745  -0.0424101948738 0.196461260319 0.324036180973  -0.08801463991400001 0.193724930286 0.280150324106  -0.051391992718 0.129726842046 0.244459152222  0.0793330296874 0.131078347564 0.273738384247  0.0304427426308 0.197590425611 0.258007407188  0.139736711979 -0.103549621999 0.308288753033  0.117407329381 -0.00031748006586 0.284001767635  0.17845864594 0.0137020656839 0.2717012465  0.133446916938 -0.07468281686309999 0.252671837807  0.193237304688 0.0103836003691 0.32706490159  0.108656100929 -0.016409387812 0.370573759079  0.195593327284 -0.0705924406648 0.374003827572  0.204297035933 -0.0882691517472 0.283604085445  0.15987212956 -0.0232784096152 0.211559042335  0.103109702468 -0.0715631917119 0.185957938433  0.25 -0.177950121638 0.0405701099774  0.25 -0.111295968676 -0.00354384794953  0.168315500021 -0.181550845504 -0.0129796266556  0.203061833978 -0.0839376300573 0.0201103240252  -0.123973377049 0.0421161539853 0.0831994190812  0.10652089864 0.041568480432 0.133020982146  -0.00508088478819 0.00464248098433 0.118765294552  0.0384838804603 0.0542355030775 0.219570666552  0.0556482039392 0.09942726045850001 0.165778696537  0.25 -0.25 0  0.25 -0.17904445884 -0.0421267671166  0.0085972994566 0.139411628246 0.206887423992  -0.0427397117019 0.0734880268574 0.199836358428  0.25 -0.25 0.166666666667  0.177338154858 -0.25 0.209433902167  0.178222204231 -0.25 0.126578397361  0.180748909712 -0.154124230146 0.180074676871  0.118582360446 0.0498475395143 0.233844980597  0.113276541233 0.115120351315 0.208414897323  0.068451166153 0.123325429857 0.09300038218499999  0.08695217221980001 0.18308262527 0.11987875402  0.1366494596 0.0978636816144 0.125807240605  0.0170362386853 0.165571182966 0.116205818951  -0.075325883925 -0.13042730093 -0.120773427188  -0.191016584635 -0.1764793396 -0.0778442546725  -0.102759346366 -0.20253264904 -0.07015967369080001  -0.126150563359 -0.115044787526 -0.0573479756713  -0.138729035854 -0.104583211243 -0.134180948138  -0.147993162274 -0.138949289918 -0.203295826912  -0.180331096053 -0.192031860352 -0.160557568073  -0.194399222732 -0.0846866071224 -0.148938387632  -0.11259970814 -0.078034222126 -0.193649172783  0.0326924659312 -0.122268341482 0.0296003930271  0.0215157996863 -0.180560961366 -0.0757267251611  0.0956164896488 -0.0493310950696 -0.0164182558656  0.112129375339 -0.112067811191 -0.105549775064  0.127802968025 -0.106147237122 -0.0110959038138  -0.0854129120708 -0.015297700651 0.056893799454  -0.0204317308962 -0.0795602425933 0.117458000779  -0.178222204231 0.25 0.126578397361  -0.177947182503 0.25 0.0435581305687  -0.107976816083 0.25 0.0905854563709  -0.157577678561 0.178241759539 0.0969507619739  0.25 -0.25 0.333333333333  0.25 -0.25 0.25  0.175776260788 -0.25 0.294629825204  0.25 -0.175495340629 0.295351832328  0.0932372882962 -0.0430554822087 0.0724518448114  -0.044769000262 -0.00661279587075 0.403999477625  -0.194478780031 -0.0247275307775 0.332954645157  -0.173761367798 -0.0806607827544 0.396263659  -0.137637495995 0.00523930834606 0.315887242556  0.0864742994308 -0.139340251684 0.176064118743  0.105438224971 -0.136641919613 0.253711819649  0.0308670303835 -0.25 -0.136809572586  0.0367561832589 -0.25 -0.219583441074  0.0925811678171 -0.20055809617 -0.19996842742  0.0127155454829 -0.193433105946 -0.225977659225  0.0415658205748 -0.200880005956 0.196522325277  0.0373581312597 -0.119548290968 0.120048768818  -0.0954102815882 -0.25 0.346414074494  -0.101368582479 -0.25 0.251933327382  -0.0374909392175 -0.25 0.286229296012  0.0852289572358 0.109103307128 -0.27055695653  0.07707493752239999 0.127253636718 -0.199824258685  0.128097131848 0.07648140937090001 -0.209757223725  0.154867321253 0.13628205657 -0.212952241302  0.08678253740069999 0.189277544618 -0.274375885725  0.127699971199 0.0803090333939 -0.326344817877  0.0577741526067 0.0601542405784 -0.31936660409  0.0525139421225 0.129102528095 -0.326874881983  0.0251371748745 0.175572559237 -0.261228203773  0.0199144631624 0.0927290171385 -0.265960127115  -0.148952946067 -0.121583275497 -0.374568909407  -0.25 0.177950121638 0.0405701099774  -0.25 0.111295968676 -0.00354384794953  -0.175531774759 0.135734900832 0.0562076568604  -0.178730383515 0.191659659147 -0.00562386959791  -0.0244714934379 -0.108516678214 -0.387223660946  -0.09279609471560001 -0.170035287738 -0.445968538523  -0.0281062982976 -0.0
[...]
<PointData  Vectors="f_104"> 
<DataArray  type="Float64"  Name="f_104"  NumberOfComponents="3" format="ascii">-1.1177834741847561e-04 -9.0943014688577690e-04 1.6726512921799902e-01  -6.7600242292772451e-04 -5.3211791274243624e-04 2.1204006816103574e-01  8.9410574466368937e-05 -5.8993078240288132e-04 1.3149832627682811e-01  -1.4531078149913592e-04 4.7349154655712772e-04 1.5116434722641234e-01  9.9725481243872409e-04 1.4512844565749128e-04 1.6880908982181342e-01  1.2385520141619283e-03 1.7391728844112137e-03 1.7312600592266583e-01  -2.8072314149368453e-04 4.1497696465933435e-04 2.1044812442383137e-01  1.0311471047079513e-03 5.6953890325990098e-04 1.7354307722256171e-01  5.0988133048339424e-04 5.9993288587116794e-04 1.8979459359014245e-01  -3.9472216516146894e-04 -6.4088016257661030e-04 1.2580608867818677e-01  9.4060633898806047e-04 -4.8027783215469693e-05 2.1554138499080838e-01  -3.2439474352268272e-05 -1.0904835975564154e-04 2.1985087464971875e-01  -1.3577989058087642e-04 -3.0612605686656624e-04 2.0208068743768184e-01  -1.7975517874258001e-04 7.2598977757119354e-05 2.0033072564769194e-01  -4.8178520955308748e-04 -9.0242168975922005e-04 1.9519910412120289e-01  2.0952328153021099e-04 3.7135175845940408e-04 1.9631511512290864e-01  2.4308349284354405e-05 -3.6765157516104025e-04 1.7212815965437173e-01  -1.1069452867294393e-04 8.6096082482468405e-04 2.1511345185149999e-01  3.0292083569512945e-04 3.2323438628801887e-04 2.2035656846731119e-01  -6.7867190346192251e-03 1.3199095339842494e-02 1.6450808820058405e-01  -1.9223643578776799e-02 1.8060249155809843e-03 1.4038615785715261e-01  -7.1715833697222914e-03 6.0732252795130783e-03 1.7126672091713110e-01  -3.2166117328020303e-03 1.0884794161633970e-03 1.8436285889576287e-01  3.2748056512964783e-04 4.7748427461863545e-03 1.7242318145871596e-01  8.9087322465935190e-03 1.2208962198652282e-02 1.5513121691779833e-01  -1.3007548113906460e-02 1.3188029163634773e-02 1.4677739573624243e-01  -1.6573652341254515e-02 2.1338769865362355e-02 1.2095801809306070e-01  5.1813926200457540e-04 2.1705829151405991e-02 1.4497210414287307e-01  -1.1840532634091501e-02 1.6132169389864549e-02 1.4151127096764232e-01  -3.8599331025996995e-04 7.2136880607005880e-03 1.7239482167503342e-01  6.1173645360544518e-03 1.2491331271143030e-02 1.7199233217355303e-01  -2.4007359562305715e-03 1.0738142735368196e-02 1.2743421028073620e-01  6.1603264557736075e-04 1.2289220113080720e-04 2.1216429892250846e-01  1.3615245916228242e-04 -9.7199968729563325e-04 1.9551095722759421e-01  -5.7554376365622802e-05 4.3602324092882556e-05 1.8276185180811866e-01  -1.6822827778692471e-03 7.0819103569703826e-04 1.8221536634012436e-01  7.7792189357839801e-04 -1.8278584978924318e-03 2.0848134471654495e-01  -1.2860972368033711e-02 8.7453090930304043e-03 1.2416714095153764e-01  -9.2823130735031623e-03 2.0409344077659320e-03 1.1433812929268619e-01  -1.0108429467450778e-02 1.0066096361959324e-02 1.7421265938357328e-02  -9.3960354990233145e-03 6.6388740414005326e-03 1.7160361495959849e-02  -1.3035978963446104e-03 3.3248827140701414e-04 1.6453722962688583e-01  -9.4043059206830120e-04 1.1356195086293249e-03 1.7819867314486085e-01  9.1194212827798557e-04 3.2044507582217361e-04 2.0328687807651005e-01  3.3900984478608991e-04 4.7538670907420268e-04 1.6138507065408503e-01  2.8932898778969877e-04 2.0476792660035679e-03 1.6469901139629420e-01  6.5462358650826761e-05 -5.5017501767659731e-03 1.8247301989657208e-01  9.2979409220260850e-03 -1.4912351717789518e-02 1.4665195134437672e-01  5.3025712144772379e-03 -1.8550310445103902e-02 1.5556724826468613e-01  1.8684305453108029e-03 -5.4454937542952149e-03 1.4804885298644119e-01  1.4158766067166368e-02 -1.5375945324393899e-02 1.5175375708617764e-01  1.8406464877692636e-03 -2.6890262874815630e-03 1.8150485180221029e-01  6.2542690592974669e-03 -4.6692883393946874e-03 1.7168001359111654e-01  -5.6639396117553449e-03 -9.7242872421909425e-03 1.5942668565355023e-01  -3.5899140822128026e-03 -2.6798955763350047e-03 1.7920974569571257e-01  -1.3599607171718570e-04 7.7320047982981730e-04 1.7760702895735861e-01  -9.9362870907891720e-04 -1.9316069070680764e-04 7.4678043964218080e-02  1.1535657060020139e-03 1.1415734979759412e-03 1.5218399283242276e-01  7.1577413199694958e-03 -6.3254628751442327e-03 1.5018040976522817e-01  3.2358166401009695e-03 1.4740144258527346e-03 1.8433752779169527e-01  4.3005578034452672e-04 1.6077769779371718e-03 1.9214249168692485e-01  5.5161789764606355e-03 4.2361840603145698e-03 1.8006776181803213e-01  2.8002736523775743e-04 2.8227653313880356e-03 1.9215521639021033e-01  -7.8308679792239689e-04 -6.7469126166032432e-04 2.1740744198085638e-01  6.6646334346389107e-04 6.5508122733936699e-05 -6.6391872052638991e-03  -2.1508507390813709e-03 -1.5693437076207102e-03 5.6524688826094703e-02  1.4152993041472801e-03 -6.2538153198093581e-04 9.4279271823843019e-02  7.3864491534924713e-04 -5.0676403449197953e-05 7.0471349521764245e-02  2.4529521934703178e-04 1.2545187761284402e-03 1.9784463777413583e-01  1.0209309705690639e-03 2.7835531807206284e-03 1.6645096034664453e-01  5.3343717841284916e-04 -1.1429519166346891e-05 -7.0956637971152170e-03  6.3989197341690336e-04 -5.2457210754916959e-05 -6.5859853177452103e-03  8.3350216398742058e-05 1.1624126648585363e-03 2.1991523077612676e-01  -1.1772206720888402e-03 -2.5466552572823882e-03 1.4303760920993064e-03  -2.1941683441649290e-03 -2.2943726750626081e-03 5.8120061792210518e-03  -7.2704619225676657e-04 -3.9154158337117292e-03 4.5870664458922102e-03  -4.3977836455399511e-03 -3.3979668658199566e-03 6.7580749651178759e-02  3.1962726072772886e-04 7.7075354469051052e-05 -7.5467029969373345e-03  1.7918627203281935e-04 -4.2134873730362563e-05 -7.1351876882179283e-03  1.8750645105107305e-04 1.7681148033468058e-05 -7.9254475612581324e-03  2.9177403234754199e-03 -1.9417799667953081e-04 8.9972913083665576e-02  -2.8848223029428934e-04 4.8938217293229967e-07 1.7641478980615849e-01  2.4291307503483532e-04 6.6214247747781857e-04 1.9792620725730090e-01  1.2516340969385849e-03 3.0238756327964752e-04 2.0148256227485795e-01  1.1158499850324631e-04 3.8345600589999301e-04 1.8076593725607285e-01  -1.2831648947203716e-04 5.0443328362061645e-04 1.4300923074661223e-01  3.1625158020607062e-06 6.6271353594726833e-04 2.0026847169307821e-01  -9.7532668500664493e-05 5.7187503089252759e-04 1.8990730934273481e-01  -1.8239832797605328e-04 5.4169771966204431e-04 1.3527194208396556e-01  -9.0756611035860339e-04 -1.4548120710492589e-03 8.5961450213359922e-02  -8.6391586084211928e-03 -1.9594951267570885e-02 1.3038878073363114e-01  8.3497753926331996e-04 -7.6848269571045836e-03 9.5688876792458022e-02  -1.4823031629200350e-02 -1.0877931632986095e-02 1.5844940868683419e-01  -9.0367565732904324e-03 -5.9187574610311544e-04 1.7337350313554911e-01  2.3860037216907550e-04 -4.8279291572508737e-03 9.4201162815669398e-02  -4.9413941318985442e-03 -6.5463013177683134e-03 8.4054439197922645e-02  -6.8957242923443577e-03 -4.8069880968659821e-03 1.3096194665680347e-01  -7.4407204169421532e-03 -9.3319387602295717e-03 8.7432007442742404e-02  -6.2062120704688435e-05 -3.8588093412949931e-03 1.4233985674796124e-01  -3.4991452845794290e-03 -1.3814020550785941e-03 1.0377570025869463e-01  -6.6568308952673931e-03 -1.4975344206822392e-02 1.4418635171753547e-01  -8.5807545660648073e-03 -6.2694047415441006e-03 1.3500400081701266e-01  -3.3627381347056483e-04 1.2728093347896444e-04 1.9568186851342617e-01  -2.7602446707678565e-04 7.9296788217494781e-05 1.7182622329005218e-01  -2.2561969199600741e-04 -1.5525137495853111e-03 1.6526974944593523e-01  -4.5123430371278064e-06 -2.3286269054543731e-04 1.3088828569450497e-01  -1.1218697520440995e-03 -3.6440372341897628e-03 8.6266653969081664e-03  -7.0083317562677543e-05 -5.1437581262907977e-04 2.2109972610105280e-01  -1.7107845672048179e-04 4.8991174624414991e-05 1.7039453948312097e-01  -2.3684916061009987e-04 4.7990023065491553e-04 2.1608493395977232e-01  -2.1971199129885402e-04 -5.1427772790315295e-04 2.0073119334871567e-01  -1.4532009401351680e-04 2.0153161175975100e-04 1.6285776211111894e-01  -1.7975593106946605e-04 1.0308705245783631e-03 8.2848072690387806e-04  5.8626208110977357e-03 8.3199508207748643e-03 9.1333874785677352e-02  -4.2356831922728908e-03 8.9006978623832490e-03 1.0289003104322400e-01  -5.3803673053353391e-03 4.4093137110025162e-03 9.0902544209343364e-02  -5.5593457386496469e-03 5.2961482235438645e-03 1.5666422073270617e-01  6.7890188780313715e-03 5.3110439228950508e-03 1.5003734614231198e-01  3.0616356037450813e-03 2.9525686136534766e-03 8.5424875093969385e-02  9.7118139870732909e-03 -5.5450693957752482e-03 1.3319844520214222e-01  9.1696937566240720e-03 -1.9165503064943056e-03 1.6869337184706329e-01  6.0549018916890790e-03 9.0400882026105839e-04 1.1099295763552942e-01  6.6315635864040460e-03 -3.8362919713642342e-03 1.4540645565037463e-01  7.9117446659494571e-03 -1.7781785434905578e-04 9.5910836982171579e-02  1.8866865975244770e-02 -1.5350114286438485e-03 1.5119769615107337e-01  1.1128442113738203e-02 -6.0678432133840689e-03 8.8266163777007953e-02  3.7496240617562000e-03 -4.9044968913471510e-03 7.5993685476241399e-02  2.4747681963677849e-03 3.9973323538126720e-04 1.2891276327320611e-01  4.2426802242993911e-03 -3.5774066287480740e-03 1.7003126213678929e-01  5.9257183582966857e-04 -1.3148616704626867e-03 -5.8084005794065453e-03  5.3912757377749180e-04 -1.0680085067983408e-03 -6.7090201123312793e-03  1.3271425567390712e-03 -8.0026607678797301e-04 7.0760420422640580e-02  -3.5862208559207933e-04 -2.6243482785063563e-03 7.2837752222318655e-02  -9.5038659270169448e-04 9.1258489477405707e-04 1.6695273773093730e-01  1.0382456622061850e-03 3.4325345558704304e-04 1.7967311003867978e-01  -1.1265574963296692e-03 2.2381692013864227e-03 2.1883331009482154e-01  2.8538920235714519e-03 3.2121133220501465e-03 1.9465198270803161e-01  1.9037122698218212e-03 2.3685932359247589e-03 1.7226667101432111e-01  6.4249035457595454e-04 -1.2468244498843903e-03 -6.4639211722462469e-03  4.1633976920080521e-04 -1.0959172362020784e-03 -7.0758335165896462e-03  1.3054596823958797e-03 2.1725843544414852e-03 1.5188813850570995e-01  -9.8192819630048430e-04 3.3937620973056633e-03 1.8928904048447648e-01  9.1159835043283738e-04 -1.9529190475303898e-03 -2.2345380692192366e-03  1.7448781802422665e-03 -2.0883139372473254e-03 -5.6069225846891294e-04  1.1724014641688841e-03 -1.5967891574377164e-03 -3.6921542378702465e-03  8.4821308135299845e-04 -1.9902366522817623e-03 7.6390491199444521e-02  6.2766728829963397e-03 4.1581652031633404e-03 1.6708730305643152e-01  3.4148944052511208e-03 3.6389978402733849e-03 1.4421885839146892e-01  -5.6138033605201455e-04 1.7990744935383709e-03 1.5460672455705443e-01  2.7178175697617803e-03 7.3407104298477263e-04 9.8810169824821797e-02  1.3540513500739711e-03 2.4295593944963193e-03 1.3595521582342762e-01  8.2173024463247520e-04 2.5928404881172661e-03 1.2813042706162783e-01  -1.3959014206895834e-03 -1.0172315961254188e-04 1.5167170343365502e-01  1.8200113923399616e-03 3.7974519036765102e-04 5.0716058373728549e-02  -1.3150399291323469e-03 9.1893683099113644e-04 6.4998769018713792e-02  5.4722096683160128e-04 -1.9792913086949891e-03 1.4359989036982229e-01  -4.0578314578451505e-04 -3.3905904157336704e-04 1.3689305057936582e-01  -9.9332751667405663e-04 -9.0529063146099916e-04 1.1061089055816557e-01  8.7718675196501918e-04 1.0054127744357311e-03 5.0594345894017061e-02  -5.6918869041360409e-04 -1.3165022135886808e-03 8.2622370048939089e-02  -1.7775136657202713e-04 7.3473533937630736e-04 1.6283436305274640e-01  5.0794825676965473e-04 5.0989591141837036e-04 1.6715497749208352e-01  1.8384143630175920e-04 -8.9584610760258456e-04 1.1030505263628949e-01  1.2492937539069896e-03 -1.3339186697253359e-03 1.8361019366083092e-01  7.1963966251599248e-04 4.5092883269673255e-04 1.4794149841937676e-01  4.3420838842276189e-04 -1.4590314251691251e-03 1.4375818999172793e-01  -8.9652692819975927e-04 -2.3138964846816288e-03 1.9814635482018364e-01  -2.4818886856053642e-04 -3.1413558713992939e-04 1.9490431150144125e-01  -8.6014874081978879e-04 1.1471414358064848e-04 -4.6052078948007865e-03  -6.1425987323931953e-04 2.1519852165936959e-04 -6.4657897173395432e-03  -7.3514285049726218e-04 4.4387495762715731e-05 -5.7713381835943992e-03  -1.2664672233260693e-03 4.7600344596867097e-04 7.7446947585318740e-02  3.5018821602729152e-03 -4.0505433967442453e-03 1.0783791452690501e-02  1.7016750428961499e-03 -3.1140658290693592e-03 2.5894455109462186e-03  3.3806984875279903e-03 -2.9970275755455151e-03 5.5125491216252865e-03  1.7757612872656534e-03 -5.0249527387799730e-03 7.0167417152884794e-03  4.6592782772053815e-04 -1.5701104248348817e-03 1.8622665488569271e-01  -8.7235380002784434e-03 -1.9615058034802187e-03 1.4318176977432090e-01  -8.8435967858193475e-03 -1.3217025319700003e-03 9.6918028066386858e-02  -1.8085398183270932e-02 -1.4857901740301969e-02 1.1124312674807098e-01  -1.2838533528021685e-02 -5.8032368806815095e-04 1.4681446598968098e-01  1.2946422424086213e-03 -2.8640729525870124e-03 1.4488611683183233e-01  4.4777767195984218e-03 -4.8024724477867282e-03 1.3106792367990180e-01  1.5568714461592625e-04 -6.8888590658358574e-04 -8.2739151024297415e-03  1.1755735773734723e-04 -6.2298291507214393e-04 -8.8022637980520180e-03  7.0831247842487296e-04 -3.8079960159256534e-04 7.1638287132073333e-02  6.5279606840201406e-04 -6.7892766403907824e-04 9.5158121143196564e-02  1.0067897724182932e-04 -6.2542954454722517e-04 8.1657210443990561e-02  2.3728196560177149e-03 -1.5946480317383124e-03 1.7289197403716897e-01  -2.7123108378332450e-03 -5.9513717376792601e-03 7.4672015275471359e-03  -6.1817388943971271e-04 -2.4717747521084137e-03 2.4751558213665693e-04  2.0375123850814673e-04 -3.0926165037758620e-03 3.3477153731615280e-03  1.5414659064979161e-04 4.7063144799254600e-04 1.6573615315023385e-01  -1.5851208329037658e-04 -1.4879989082028818e-05 1.5534270352982055e-01  3.8074567092015438e-05 -3.2972781239921358e-04 1.5316795426765020e-01  3.7385269763351447e-04 -3.7227891210016740e-04 1.0491367432568388e-01  2.0571122816404223e-04 -3.6757945130757447e-04 8.7382547602871743e-02  5.5918505808972522e-04 1.8386560651912777e-04 1.5474567346100962e-01  8.7699679069250811e-05 2.8379693851735238e-04 2.0062908798797111e-01  1.5067618816019565e-04 -2.3280320134531736e-04 1.6192815738910013e-01  1.0076958073870739e-04 -1.4400537624256328e-04 1.1822849318210704e-01  1.0405552433405262e-04 -9.6864084993070659e-05 1.9284230354474718e-01  9.6931931818226015e-06 -3.2830202407176654e-04 1.1864410001188834e-01  -6.2105428074395381e-04 2.7555589142582213e-04 -6.5378187524987542e-03  -4.1796231943541071e-04 9.6024659938364888e-05 -7.0371063583112110e-03  -5.8990910006387950e-04 -1.1017856619424614e-03 9.0424489952089876e-02  5.2125421713959978e-04 -2.4980466337458959e-03 5.2302477539166350e-02  2.1849932454801797e-04 2.6289847484390640e-04 1.8160602025687023e-01  -1.3423738596396581e-05 3.2640439314728044e-04 1.0991058717204896e-01  -4.2786071236980602e-05 7.2307051835683437e-04 1.9975744240924442e-01  -4.9789559792527856e-04 2.2576703475466229e-04 -7.0801603493679897e-03  -4.3560920768527154e-04 2.0678448399002214e-04 -7.6926954037306950e-03  7.5880394389368506e-04 3.8068850521487781e-04 1.3265148468961324e-01  -7.6599216321986531e-04 -5.6220064794960457e-04 8.9935599762538149e-02  -2.1803209139235639e-04 -9.2954182084756633e-05 1.2090728951343870e-01  -9.0367412949130161e-04 -8.7028152469406726e-04 1.0610302585119633e-01  -5.9954206038682174e-04 -1.1096662275440485e-03 1.9738457424660785e-01  -1.0647707534844327e-05 -1.1800601297234840e-04 -9.7470395525845448e-03  -1.0852400080760576e-05 -1.3708532726779309e-04 -9.7450949664623920e-03  -3.3391468604350398e-05 -3.1370496024527283e-04 -9.3629896274622527e-03  -2.8263255313244577e-04 2.8359198248034586e-04 8.9785074637431295e-02  -9.8567245834266145e-05 -5.1202090126346858e-05 1.9964479832667906e-01  -2.7540868074650158e-04 2.1072675155423917e-04 2.0052322531262920e-01  1.4626750376865111e-05 1.2938040237114724e-03 1.5536656512949165e-01  3.9737550057732579e-04 2.3392615178201032e-04 1.8112170513574527e-01  6.7424282479270844e-04 2.5632215976574725e-04 1.8527103641522102e-01  7.8098999618263481e-04 -3.4692851199933023e-04 1.6988538114674864e-01  -3.6892067702764853e-04 -1.0537749606748337e-03 -6.1262853687660060e-03  -1.9658121424661828e-04 -8.8097256705396080e-04 -6.9096701301908951e-03  8.9469739302425221e-04 1.7748437749279524e-04 5.6786751292519068e-02  -1.0257659008544803e-03 7.0482410928742628e-04 8.0364878129978765e-02  -8.5237791454067415e-05 5.3806449437813076e-04 1.5043228110564319e-01  -4.8667001145782999e-04 1.0070788518007686e-03 1.6287057186801041e-01  -3.2388838740931613e-03 -1.2668170547804843e-03 1.8859321015321667e-01  -4.5714636757984194e-03 1.8771813857578986e-03 1.7039064940598062e-01  -6.8624938937096765e-03 9.5558812549192632e-03 1.3812325135015366e-01  -7.8065520146619110e-03 3.1675856625413370e-03 1.3833782418593682e-01  -1.4871407719969705e-02 1.4583210754604720e-02 1.2629468987806247e-01  4.5793240679673130e-06 1.7033363442171424e-04 2.1320567381979336e-01  -1.6374198965452022e-04 4.1310724721850664e-04 1.9739522496335010e-01  -3.4407038535185343e-04 4.4062600343026855e-04 1.7570712622759008e-01  3.5398229398865024e-04 3.6938268197216973e-04 2.2111823946757986e-01  -8.6699113145007880e-05 8.5515782840334608e-04 1.8501369108811294e-01  -3.4894604523295187e-04 2.6079524270115911e-04 1.8951084457073994e-01  -2.1438488693144899e-04 3.0405867036961551e-04 2.0871688470846811e-01  3.6888959920850479e-05 -5.4887693066348613e-05 1.7094261430029883e-01  2.1043543080850432e-04 1.0567974177475374e-04 1.7439948774705682e-01  -6.2199798902769069e-04 6.1230295236321781e-05 7.7308788329001996e-02  -2.8772321760943067e-04 5.4772964373187580e-04 1.2061366732819739e-01  -1.2132803439469513e-04 4.3565876170143837e-04 1.2727310995248903e-01  -2.9648123107172211e-04 -2.2900517085092632e-04 6.0391022792472167e-02  -6.1671454487167791e-06 3.7235726522953649e-04 8.6336995133722949e-02  -2.0244887581280974e-04 7.3553514524006113e-04 1.1881529813274865e-01  3.9416013528562531e-05 -5.5293678369381359e-04 8.7951510708329531e-02  4.7693129842011307e-05 5.4659895697168909e-04 7.9924904526645468e-02  7.3803254529777110e-03 -1.1360025589968419e-02 7.7039245362498510e-02  8.5807723726265550e-03 -9.7800415929276512e-03 8.9730485253014414e-02  3.8115669991124227e-03 -3.1590557801224961e-03 6.6390896335742022e-02  1.8523686542954360e-02 -1.4659333567064239e-02 1.3098287532723588e-01  -1.9685890009429843e-02 -8.0132316913908014e-03 1.2252872817748868e-01  -1.4438084211834063e-02 -1.8259680809109183e-02 1.2011290831044757e-01  -1.6317517154479956e-03 8.5521350460795390e-05 -1.1711268001171336e-03  -2.6856286399279655e-03 4.6284251827912885e-04 2.8472089260645839e-04  -1.2127516441114538e-03 1.4639943939295065e-04 -3.3077409943215925e-03  -1.8754616014227620e-03 5.0237486705787644e-04 6.6071416291969318e-02  4.9944749496441667e-03 -1.8539267492447775e-02 1.2833765653610457e-01  -5.4094176429205323e-04 -2.1011876330396112e-02 9.7813215020541563e-02  4.4616874047441182e-03 -1.5936358611913195e-02 9.1474758452110200e-02  -7.2815989154407651e-03 -9.0105770072401205e-03 8.8070304032804095e-02  1.1715968745669509e-02 7.4972751245138943e-03 1.5575961389250628e-01  1.3477328823496093e-02 1.8957305754600643e-02 1.2759615146507466e-01  1.8586563870635089e-02 1.2303037236746171e-02 1.0310472525245308e-01  8.4667672065607009e-03 7.2552102548221571e-03 1.0961203421690979e-01  -8.7033526651362953e-06 -1.2611591443194663e-04 -9.8379445233608576e-03  2.7950974065843452e-05 -1.1617228343472427e-04 -9.8200154882060204e-03  -1.1499184960066084e-04 3.5438879249339363e-04 1.1738216073426856e-01  -1.2327077357132418e-03 9.5145335389923576e-04 1.2002151266618992e-03  -3.1012183427448978e-03 1.3685747361302930e-03 3.1714999527660760e-03  -4.3977437047196576e-03 3.1408033041002391e-03 7.8216907515311296e-02  4.7546187329776605e-05 -4.5766058271162139e-04 2.10