<?xml version="1.0"?>
<VTKFile type="UnstructuredGrid"  version="0.1"  >
<UnstructuredGrid>
<Piece  NumberOfPoints="857" NumberOfCells="3763">
<Points>
<DataArray  type="Float64"  NumberOfComponents="3"  format="ascii">-0.0182597916573 0.126128911972 -0.119588643312  -0.0077641364187 0.0512270443141 -0.07050477713349999  -0.0237180162221 0.16240182519 -0.053058128804  -0.107877351344 0.105669431388 -0.0502408407629  -0.0444478429854 0.116080775857 -0.00235075876117  0.0393674038351 0.112876079977 -0.0491501875222  0.0248903874308 0.0489483103156 0.000152088920004  0.0314915925264 0.114928804338 0.0218031276017  -0.0657326281071 0.0685198307037 0.0497140102088  -0.0355357266963 0.164656624198 0.0508319064975  -0.010538729839 -0.0422629192472 -0.208358153701  -0.0239527057856 0.0135364839807 -0.242119863629  -0.0194642152637 -0.0775559768081 -0.263431429863  -0.08492307364939999 -0.0108216870576 -0.280446648598  -0.08293507993220001 -0.0361198186874 -0.159778758883  -0.0240796487778 -0.0824203491211 -0.148982465267  0.0430508553982 -0.121076337993 -0.234084427357  0.0307756774127 0.0324950888753 -0.198437720537  0.00352357281372 -0.00433266581967 -0.144715368748  -0.0456651262939 0.08372022956609999 0.342343091965  -0.116630032659 0.0117083769292 0.386158525944  -0.08223126828669999 0.0577075146139 0.289406776428  -0.0511222109199 0.00205342215486 0.300772219896  -0.0125984866172 0.0267426930368 0.351842552423  0.0303636882454 0.0561947338283 0.391145974398  -0.0524924062192 0.0543583929539 0.40361738205  -0.07944945245979999 0.130002260208 0.441037595272  -0.000730989675503 0.119443200529 0.385622620583  -0.078488714993 0.137875169516 0.332541137934  0.0142801422626 0.110509291291 0.27100610733  0.0224165506661 0.08303219079970001 0.331783413887  -0.0170432701707 0.161798536777 0.30022162199  0.000811119796708 -0.0515509881079 -0.08419398218390001  0.0888616070151 -0.015075173229 -0.0776951387525  -0.0989535748959 -0.0518730916083 -0.08125374466180001  -0.0433920919895 -0.09785594791170001 0.0106235472485  -0.0488061010838 0.0295096840709 -0.0131453983486  -0.25 0.25 0.5  -0.166666666667 0.25 0.5  -0.25 0.195066730511 0.445658150344  -0.19506166517 0.25 0.445542865294  -0.0213422998786 -0.126349791884 -0.045622177422  -0.117952652276 0.0158270020038 -0.16616243124  -0.0531469397247 0.0490713231266 -0.13630309701  0.0358348339796 -0.131537660956 -0.134171053767  0.0583617314696 -0.115307979286 -0.0462360456586  0.010585160926 -0.0606908276677 0.314250290394  0.078067921102 -0.133790805936 0.331458956003  0.0206208750606 -0.104583717883 0.36723652482  0.0300164371729 -0.13569638133 0.270959883928  0.0797956883907 -0.07311873137949999 0.388136893511  0.0291880238801 -0.0850581228733 0.220644980669  0.0788302049041 -0.07555303722620001 0.284453928471  -0.0465739220381 -0.108428947628 0.305151432753  -0.056692365557 -0.0812899768353 0.234353885055  0.10282895714 0.0630551427603 -0.0452189296484  0.178613707423 0.153893724084 -0.0703043565154  0.0750898644328 0.130835875869 -0.116260357201  0.0179002508521 -0.0400723591447 0.396018892527  0.07961820065980001 -0.020668130368 0.232235535979  -0.00726175494492 -0.022667773068 0.242156982422  0.0524490773678 0.0171752162278 0.310696065426  0.0103002395481 0.0813155695796 0.107229083776  0.00225681974553 -0.008687185123560001 0.0457225777209  0.177950121638 0.25 0.0405701099774  0.151375159621 0.202163234353 -0.00268407491967  0.13042794168 0.172564610839 0.0599601529539  0.184557154775 0.16295710206 -0.00737970136106  0.0827306732535 0.011830884032 0.0299163535237  0.106673434377 0.0676268041134 0.0663062110543  0.25 0.25 0  0.25 0.177947182503 0.0435581305687  0.0251978598535 -0.0201241951436 -0.0233656335622  -0.25 -0.25 0.25  -0.175495340629 -0.25 0.295351832328  -0.25 -0.175776260788 0.294629825204  -0.164853364229 -0.189889326692 0.246240898967  0.111295968676 0.25 -0.00354384794953  0.0417815256417 0.25 0.0264120515999  0.0577150444892 0.25 -0.0418173710713  0.035034801811 0.196921139956 -0.0497792549431  -0.115254960954 0.0352221727371 -0.0357825122774  0.0360979661345 0.0743419006467 -0.130612716079  0.08110298216340001 0.0143552683294 -0.135737240314  0.0281950440258 0.110801942647 -0.38559025526  -0.000352636008756 0.154027625918 -0.45018479228  0.0220217909664 0.07910815626379999 -0.445265561342  -0.041934799403 0.09297795593740001 -0.440330862999  -0.115356497467 0.128115877509 0.0303980205208  -0.08144567906859999 0.192924261093 -0.0396481454372  -0.0503155887127 -0.140062868595 0.370642662048  0.0181560348719 -0.191118896008 0.319997102022  -0.09442232549189999 -0.0766885429621 0.347179293633  -0.10306725651 -0.0245223585516 0.261891931295  -0.0371639840305 -0.192689821124 0.258922994137  -0.08778057992460001 -0.193450272083 0.293951839209  -0.116932563484 -0.137108251452 0.278956532478  -0.0434515699744 -0.19969072938 0.340430229902  -0.016621209681 -0.143479332328 0.208528921008  -0.0799133181572 -0.177766740322 0.206858798862  -0.0340202823281 -0.07231882214550001 0.405357718468  -0.153045728803 -0.0703692808747 0.28540495038  -0.0647673308849 -0.069349065423 -0.297796696424  -0.0468406006694 -0.118580199778 -0.331259429455  -0.0636249184608 -0.122360698879 -0.235275790095  -0.137311711907 -0.115820750594 -0.279358655214  -0.25 -0.25 0.333333333333  -0.00222280388698 -0.0275516584516 -0.327156513929  0.0233143884689 -0.124395690858 -0.330935031176  -0.00544846989214 -0.0444226972759 -0.392852008343  -0.07202984392639999 -0.0450558848679 -0.379192590714  -0.128861442208 -0.0482712239027 -0.325591087341  -0.0319190612757 0.25 0.27473160228  0.0259018652141 0.196524605155 0.343851953745  -0.0424101948738 0.196461260319 0.324036180973  -0.08801463991400001 0.193724930286 0.280150324106  -0.051391992718 0.129726842046 0.244459152222  0.0793330296874 0.131078347564 0.273738384247  0.0304427426308 0.197590425611 0.258007407188  0.139736711979 -0.103549621999 0.308288753033  0.117407329381 -0.00031748006586 0.284001767635  0.17845864594 0.0137020656839 0.2717012465  0.133446916938 -0.07468281686309999 0.252671837807  0.193237304688 0.0103836003691 0.32706490159  0.108656100929 -0.016409387812 0.370573759079  0.195593327284 -0.0705924406648 0.374003827572  0.204297035933 -0.0882691517472 0.283604085445  0.15987212956 -0.0232784096152 0.211559042335  0.103109702468 -0.0715631917119 0.185957938433  0.25 -0.177950121638 0.0405701099774  0.25 -0.111295968676 -0.00354384794953  0.168315500021 -0.181550845504 -0.0129796266556  0.203061833978 -0.0839376300573 0.0201103240252  -0.123973377049 0.0421161539853 0.0831994190812  0.10652089864 0.041568480432 0.133020982146  -0.00508088478819 0.00464248098433 0.118765294552  0.0384838804603 0.0542355030775 0.219570666552  0.0556482039392 0.09942726045850001 0.165778696537  0.25 -0.25 0  0.25 -0.17904445884 -0.0421267671166  0.0085972994566 0.139411628246 0.206887423992  -0.0427397117019 0.0734880268574 0.199836358428  0.25 -0.25 0.166666666667  0.177338154858 -0.25 0.209433902167  0.178222204231 -0.25 0.126578397361  0.180748909712 -0.154124230146 0.180074676871  0.118582360446 0.0498475395143 0.233844980597  0.113276541233 0.115120351315 0.208414897323  0.068451166153 0.123325429857 0.09300038218499999  0.08695217221980001 0.18308262527 0.11987875402  0.1366494596 0.0978636816144 0.125807240605  0.0170362386853 0.165571182966 0.116205818951  -0.075325883925 -0.13042730093 -0.120773427188  -0.191016584635 -0.1764793396 -0.0778442546725  -0.102759346366 -0.20253264904 -0.07015967369080001  -0.126150563359 -0.115044787526 -0.0573479756713  -0.138729035854 -0.104583211243 -0.134180948138  -0.147993162274 -0.138949289918 -0.203295826912  -0.180331096053 -0.192031860352 -0.160557568073  -0.194399222732 -0.0846866071224 -0.148938387632  -0.11259970814 -0.078034222126 -0.193649172783  0.0326924659312 -0.122268341482 0.0296003930271  0.0215157996863 -0.180560961366 -0.0757267251611  0.0956164896488 -0.0493310950696 -0.0164182558656  0.112129375339 -0.112067811191 -0.105549775064  0.127802968025 -0.106147237122 -0.0110959038138  -0.0854129120708 -0.015297700651 0.056893799454  -0.0204317308962 -0.0795602425933 0.117458000779  -0.178222204231 0.25 0.126578397361  -0.177947182503 0.25 0.0435581305687  -0.107976816083 0.25 0.0905854563709  -0.157577678561 0.178241759539 0.0969507619739  0.25 -0.25 0.333333333333  0.25 -0.25 0.25  0.175776260788 -0.25 0.294629825204  0.25 -0.175495340629 0.295351832328  0.0932372882962 -0.0430554822087 0.0724518448114  -0.044769000262 -0.00661279587075 0.403999477625  -0.194478780031 -0.0247275307775 0.332954645157  -0.173761367798 -0.0806607827544 0.396263659  -0.137637495995 0.00523930834606 0.315887242556  0.0864742994308 -0.139340251684 0.176064118743  0.105438224971 -0.136641919613 0.253711819649  0.0308670303835 -0.25 -0.136809572586  0.0367561832589 -0.25 -0.219583441074  0.0925811678171 -0.20055809617 -0.19996842742  0.0127155454829 -0.193433105946 -0.225977659225  0.0415658205748 -0.200880005956 0.196522325277  0.0373581312597 -0.119548290968 0.120048768818  -0.0954102815882 -0.25 0.346414074494  -0.101368582479 -0.25 0.251933327382  -0.0374909392175 -0.25 0.286229296012  0.0852289572358 0.109103307128 -0.27055695653  0.07707493752239999 0.127253636718 -0.199824258685  0.128097131848 0.07648140937090001 -0.209757223725  0.154867321253 0.13628205657 -0.212952241302  0.08678253740069999 0.189277544618 -0.274375885725  0.127699971199 0.0803090333939 -0.326344817877  0.0577741526067 0.0601542405784 -0.31936660409  0.0525139421225 0.129102528095 -0.326874881983  0.0251371748745 0.175572559237 -0.261228203773  0.0199144631624 0.0927290171385 -0.265960127115  -0.148952946067 -0.121583275497 -0.374568909407  -0.25 0.177950121638 0.0405701099774  -0.25 0.111295968676 -0.00354384794953  -0.175531774759 0.135734900832 0.0562076568604  -0.178730383515 0.191659659147 -0.00562386959791  -0.0244714934379 -0.108516678214 -0.387223660946  -0.09279609471560001 -0.170035287738 -0.445968538523  -0.0281062982976 -0.0
[...]
<PointData  Vectors="f_78"> 
<DataArray  type="Float64"  Name="f_78"  NumberOfComponents="3" format="ascii">6.6937910570252588e-06 7.7109679351536558e-07 -4.6346658680106153e-03  -2.7423641785367454e-06 3.7867808887671959e-06 -4.6163086704792142e-03  -3.0350622611048086e-06 -9.0793849485233197e-06 -4.4101481804598745e-03  -1.7724147015956062e-05 7.0638644554342329e-06 -4.1521794341752754e-03  -1.2895172362056103e-05 4.1139492328192639e-07 -4.6266172875687201e-03  6.8769701763403908e-07 1.5451949599967153e-05 -4.3240970936342616e-03  -3.7754163206571737e-06 5.1493966403917086e-06 -4.6577197611546023e-03  2.2130153358596420e-06 6.8842598162872316e-06 -4.3480007359318279e-03  -8.8554787454662210e-06 -4.9262068310973803e-06 -4.6280539717242731e-03  -1.0371372888985294e-05 1.5338468304138321e-05 -3.8510087713555493e-03  -2.0179892604830413e-06 6.4756255287084725e-06 -4.6924688999144728e-03  -1.8733615470408224e-06 3.6433443263691675e-07 -4.6614635485514987e-03  1.4752464981311605e-06 7.5109757883018050e-06 -4.6058745821271896e-03  -1.1704214885531223e-06 6.9576839054668150e-06 -4.6301272726457622e-03  8.2126105908055999e-06 8.1105970137500942e-06 -4.5154286080415990e-03  2.5577238571771228e-06 1.4996139222454419e-06 -4.5563483569344620e-03  9.4321369932036823e-06 1.3565027879577477e-06 -4.3432074826671649e-03  2.7738482046305258e-06 2.3794850805416042e-06 -4.6579454904135285e-03  3.5323260607079537e-06 -3.7843166553726068e-08 -4.6497543580322574e-03  -1.5902610594530717e-06 2.0776829536739022e-05 -4.7167074606387031e-03  -9.2810881477652983e-05 1.4458646948631951e-05 -4.8207176605641654e-03  -1.5611315815132035e-05 2.6624667775123410e-05 -4.5606236811161814e-03  -1.6589667369061238e-05 1.5461562469678601e-05 -4.7103395696879479e-03  4.8796487759480571e-06 1.2875737516384762e-05 -4.7372814513478526e-03  4.3875663188502462e-05 2.2726497288452501e-05 -4.9197713672290318e-03  -1.5039613026595116e-05 7.4116526845470699e-05 -5.1162697032290701e-03  1.1372114689571388e-05 1.5515314733360495e-04 -4.1230782541786829e-03  -2.4019787584277206e-06 1.1188000270689302e-04 -4.4990743473613841e-03  -6.6194441917795933e-05 7.0161291109205868e-05 -4.5360931940691572e-03  -1.4782661693552210e-05 2.6834845919564683e-05 -4.6204508743597616e-03  4.2731737475360098e-06 4.4508678548130839e-05 -4.5554822921104561e-03  -1.0484771990010791e-05 1.6150698085615436e-05 -4.5911776407650809e-03  -1.8649784559915179e-06 3.8168778079009257e-06 -4.6459805812067391e-03  -8.0072739906559993e-06 6.4668923920891742e-07 -4.4854490796893088e-03  -9.2034998628766018e-06 -2.1825399266702509e-06 -4.4995593869456467e-03  -7.0669005526786550e-06 2.7151628830378569e-06 -4.5631383696021748e-03  -3.1306160726934777e-06 6.4664069196810533e-06 -4.5984367495881303e-03  6.7067492115122453e-06 -5.7490463849427291e-06 1.9008935079506445e-05  3.5281217335412499e-06 -9.9142626878533729e-06 9.8582652781846910e-06  4.9756820586274020e-06 3.1784638248115099e-06 1.2162421041598742e-05  -4.1318221853915478e-07 -1.0847003702539452e-06 9.3902378297464921e-06  -1.1572862342091784e-05 1.0064646952812417e-05 -4.2806769057446483e-03  1.2107325169739467e-05 1.1264254109955687e-05 -4.5729526276806860e-03  1.4503462259566676e-06 6.0183042616284414e-06 -4.6757652150057494e-03  -4.8913964096785076e-06 -5.3281800580727597e-07 -4.4902943651614772e-03  1.6872363507502654e-06 -4.9354481174572285e-06 -4.3119078358176167e-03  6.6669997543242701e-06 -7.9750170490405113e-06 -4.7279460976789537e-03  -7.7840557878787200e-06 -2.6917921190267225e-05 -4.4901071074712126e-03  -6.8771422354968676e-05 -5.0020811667176157e-05 -4.7371652889795042e-03  -1.0586296527886760e-05 -4.4413146586560598e-06 -4.3704144185218972e-03  6.7110639861028880e-05 -7.5705257717018713e-05 -4.5808665292305893e-03  -2.7749940106768333e-06 -8.0479221261837414e-06 -4.6439585671468452e-03  -2.2032832749761113e-06 2.7654295235522869e-06 -4.5737623856425078e-03  -2.8546167984444840e-05 -2.9773030536249349e-05 -4.2875314741811299e-03  -1.7400056646058371e-05 -3.3894841087809617e-06 -4.5582916298048453e-03  -1.0380853864729106e-05 1.0494213293738757e-05 -4.4110470454127304e-03  3.2793762179764881e-05 5.1993708250057020e-05 -3.1093469917605784e-03  -5.7526460159948812e-06 5.2102812323916481e-06 -4.0894280080017572e-03  -2.7510533368656210e-05 1.4312024257273749e-05 -5.0395806565729628e-03  -1.1625639304038246e-06 3.6745147414220505e-07 -4.5993702529820877e-03  -4.4239644419414640e-06 5.9023959913433821e-06 -4.6676664696309843e-03  9.1577043685111193e-06 1.8951585909489615e-05 -4.6886390990798022e-03  -1.0519327012570480e-06 5.4420036148858283e-06 -4.5522560666667149e-03  -6.1286272080973661e-06 2.6159565497623346e-06 -4.6944673497845779e-03  -1.1709110990962319e-07 -3.8529273292738495e-06 7.2469896215656792e-08  5.9894658675597957e-05 8.6854564138610271e-08 -2.9061671503883748e-03  -2.1536512210052176e-05 -3.9402862815630310e-05 -3.4930540368961647e-03  -2.3540627589638601e-05 1.1745662048871371e-05 -3.3205113652835768e-03  -5.7892435938748068e-06 1.1527461177124965e-05 -4.6002160539315492e-03  -1.3980990312544876e-05 6.0048051783117543e-06 -4.5054705038586277e-03  2.5341071839787257e-06 2.8649639954712206e-06 9.2184165314631627e-07  -3.4693887543323764e-06 6.8559349004242475e-07 -3.5158176290565765e-07  -3.7762100821756093e-06 2.2044361764114924e-06 -4.6988453559547519e-03  -8.2029038380067496e-06 -5.0588171819723846e-06 -4.7408442119641149e-06  -2.0244056391491348e-06 5.8201251139993163e-06 1.1204388920788710e-06  9.0571929259548678e-06 5.6501102711364204e-07 1.0907508850742613e-06  3.0924936507012057e-06 -3.5429505944487873e-05 -2.4885196759666640e-03  8.0353083904258381e-07 6.6908722465970008e-07 2.1842662116720748e-06  -7.0400891237020855e-07 -7.5991473515750747e-07 3.1383818704668316e-07  -3.2473651965987472e-07 -8.8388726194705012e-08 4.5119965498239922e-07  -1.0373330608003463e-05 1.2633241084590802e-05 -3.4345740677793920e-03  -1.9127901589278324e-05 -2.0775574879155396e-06 -4.3703396766356511e-03  1.5801146303536350e-06 2.1681733117143178e-06 -4.6794647677718100e-03  8.4201164519703768e-06 3.5388032549728675e-07 -4.5377988870501495e-03  -5.3884053428118303e-06 -1.4194860503317807e-05 -4.4105663605004926e-03  1.2613852810728476e-05 -4.4059691109661672e-05 -3.5182559264109606e-03  5.2218916149589948e-06 -4.5755920435641670e-06 -4.5891482707414921e-03  7.3549067083866568e-06 -3.5618417946368435e-05 -4.4701632918731820e-03  -7.2175231244958213e-06 -2.2068185991077441e-05 -4.2897809434964953e-03  -4.0485187652362781e-05 1.4832710248208889e-05 -3.0535665242615042e-03  2.7537427886693837e-05 -7.6472410376133109e-05 -4.3446826066672172e-03  -1.6374763184380529e-05 1.5146749260751298e-05 -3.7363486729448661e-03  -4.2031679255977946e-05 -1.6892405298910888e-05 -4.3526732691313427e-03  -1.6897817615719355e-05 -6.0072329115500745e-06 -4.5711112503513587e-03  -3.0464432544569035e-05 1.4415370902007839e-05 -3.6393527313066639e-03  -3.9621676538111461e-05 -1.1064431101913083e-04 -3.4666564860380876e-03  -3.7870716730305858e-05 -2.6294517586468317e-05 -4.0952758529833287e-03  3.1011248347906372e-05 -3.2020226148725345e-05 -3.2693578739299415e-03  2.5372724624257997e-06 4.8755783719367532e-06 -4.5259881169902177e-03  -7.0424086149677231e-06 3.1937859172075759e-05 -3.7253703359313673e-03  -6.1852513606539518e-05 3.1282646486210300e-06 -4.7388572204630722e-03  -3.3211032962980447e-07 1.0963376841287574e-05 -3.3666778447950939e-03  7.3804237604689101e-06 7.5566913862589836e-06 -4.5637546260971166e-03  5.7500018063432931e-06 6.7380895379668572e-06 -4.4236727739759684e-03  4.6531130752670835e-06 -4.3190823803903813e-06 -4.2392173540433805e-03  9.6177691525893210e-07 1.3812130768267001e-05 -4.0258891926320210e-03  -1.8888316353103233e-06 -1.8597828906261280e-06 3.6463988317130815e-06  5.5232237290995424e-06 4.0734157363141300e-06 -4.6226404042107594e-03  -2.3725492113934892e-06 1.2459848424543635e-05 -4.6105749008421397e-03  3.7548178710080258e-06 1.7555426171329902e-05 -4.5722706807474226e-03  6.1139446493995409e-06 1.5011274544112758e-05 -4.4666236415314272e-03  1.0620006312046136e-05 7.9601927937353394e-07 -3.9317478937669643e-03  7.0110946246594898e-07 2.1542035480739263e-06 2.9549071101739451e-10  3.0210792804312844e-05 8.6425441502322142e-05 -3.8164836028946928e-03  -7.7883121234934458e-05 9.9262551524478037e-05 -2.9776044780030551e-03  5.8801488059354760e-05 -2.9385675381247975e-05 -3.2741851838708818e-03  -5.6791850019507469e-06 2.6329025622441700e-05 -4.5911536001862034e-03  -1.0155191669437505e-05 1.2423552165100151e-05 -4.0794035416904274e-03  1.1186382478189104e-05 -5.2159342347500148e-05 -3.9103062880617174e-03  3.3286062882041438e-05 -5.2580313777349308e-06 -4.3307836660462394e-03  7.8223075548133995e-06 3.0940190463596614e-05 -4.5844490185569563e-03  1.5095428481917650e-06 -1.7751187978083924e-06 -3.4067260271572436e-03  -2.6035018792553485e-05 2.9727763998022272e-06 -3.7934937462093246e-03  -7.9541530680796774e-06 8.7993855681304898e-06 -3.5369012323938250e-03  7.0274651281501723e-05 2.2543492728872915e-05 -4.6934179186530027e-03  9.1672170888410979e-05 3.8324583285199276e-05 -3.5090051940394724e-03  4.4188770956141766e-06 3.6740757204515815e-05 -3.8812245076614653e-03  -3.0138488238773692e-05 8.0115604008162145e-06 -4.2839296223823892e-03  -1.4894687572565799e-05 -1.3071287558562800e-06 -4.1366846141498636e-03  1.5944655233905700e-06 -2.4786269042468280e-06 -8.8022090215083028e-07  1.1702763448638830e-06 -5.0253518142062766e-07 -7.8953861619663872e-07  -8.9365138416047594e-05 6.7512920312035672e-05 -3.4305552258141348e-03  5.2363568291438701e-05 -3.1871372194620353e-05 -2.9338661324005608e-03  1.2707945829560198e-05 8.8181516757470245e-06 -4.4089047083058922e-03  4.2443052796038112e-06 7.7083200926254195e-06 -4.4190968934176324e-03  -3.9467480220600188e-06 4.4912284521390139e-06 -4.6450095724128587e-03  -1.9694698322230032e-06 1.3449623924775343e-05 -4.6541745940703030e-03  6.0689397588067032e-06 1.6542559617329964e-07 -4.5718524117627580e-03  5.6892136060869677e-07 -2.4266405936185199e-06 1.7457824790111524e-06  -5.7980471273911011e-06 -4.1033670330299307e-07 -2.0414146243389654e-06  -9.5819646644517672e-06 3.6216168104034015e-06 -4.0410876440454347e-03  -3.3012880125016203e-06 1.7691701263721670e-05 -4.5464957768202316e-03  5.0759007276394292e-06 -5.1119206235425586e-06 1.8796768548976838e-08  1.8061585690744931e-06 2.2013935454901204e-06 -1.4028464516289216e-07  9.0416934415794415e-07 5.3328379420069912e-06 1.2806345694208500e-06  -1.0640884181641706e-05 1.9630633423063601e-05 -3.5658205118743783e-03  8.3253602026514168e-06 1.9476860380880484e-05 -4.3763103001675224e-03  8.8615988978273832e-06 2.2980485129027089e-06 -3.9875447686031767e-03  -5.2897813219564925e-06 7.5263713693503263e-06 -4.4628803546825895e-03  4.5393751865548672e-06 -1.6121360494695927e-05 -3.6664785492770829e-03  -9.7385436533134724e-06 -2.9142078263354368e-05 -3.5828259239122848e-03  3.5159219335130333e-05 9.8882062578548280e-06 -3.5673470166670460e-03  -2.8787802343672870e-06 1.0613019514301111e-05 -4.1962278566221312e-03  -5.4384369694995909e-05 -4.4677275018979249e-05 -3.3724598985822008e-03  2.0828574211992931e-05 -4.0095488758899775e-05 -2.8527915271163097e-03  -2.0698581977175944e-05 -2.3375143506539635e-05 -4.0208447322361181e-03  2.6718510938517295e-06 2.0535751902896624e-05 -3.7307780005168770e-03  1.6097239144734975e-05 -3.9838038895338272e-06 -3.9148835029831804e-03  2.1333257570048552e-05 7.1106455856266983e-06 -2.9247850578189424e-03  -1.6032591830173131e-05 -2.1682329687463395e-05 -3.5482333908797106e-03  1.1542473181699292e-05 -1.4179211010490460e-06 -4.3435433528652692e-03  -7.3903001709092202e-06 -4.6816871956539906e-06 -4.4100486283959574e-03  -1.0261756880435871e-05 1.4733384207324075e-05 -2.8627191641689429e-03  1.0527496808097817e-05 -4.2987285696861651e-06 -4.3895446225285014e-03  1.8316256332647199e-06 -9.6585336631225798e-06 -4.1374553320362066e-03  -2.4806597452263994e-06 8.7218870739402619e-06 -4.2190543024618653e-03  2.1446474417342533e-06 -1.8437299447159711e-06 -4.6056067505147475e-03  -7.3274983603384995e-06 -2.5109405137565984e-07 -4.6644615836841383e-03  -1.6460350696174955e-06 -4.4626988085224486e-06 -2.2037404093465765e-08  -2.8260793446387482e-07 -6.9056128262558439e-06 1.8205522686027847e-09  2.8850348098324575e-06 2.2059615141112075e-07 1.4510525949274002e-06  5.8064521687493755e-06 -5.3428194817159950e-06 -3.2174352862625278e-03  4.2863375625254768e-06 -2.2430853289752859e-06 8.2827274319506818e-07  9.9868334370761418e-07 -4.7933621065572699e-06 -1.9879845768545400e-06  6.6007530932588009e-07 3.8936053263479327e-06 1.8339527028104922e-07  -3.4453069472001867e-06 -1.5578370121114902e-06 -1.4770766102694410e-06  -1.1213404723929403e-05 7.3544212447678886e-06 -4.4792559340252744e-03  -1.4153759595250060e-05 7.1504417605886644e-07 -4.9620771312863217e-03  -3.7343690379223798e-05 -6.5471299446701143e-05 -2.8488797155033605e-03  -9.3140840579632774e-05 -3.3614607794127548e-05 -4.0665378562333527e-03  9.9029744206782157e-06 -8.7985878975226383e-06 -4.1829544098289685e-03  2.8817507664723752e-07 1.0918525807953897e-05 -3.8541993664307239e-03  -5.6118998771395879e-07 -1.7722908927835490e-05 -4.2997168535818375e-03  3.9602016377543792e-08 -1.1436081296412619e-06 8.9263452660712391e-07  1.9020796486439340e-06 5.9258503988435806e-06 1.6019065914931531e-06  6.7863657869228925e-05 -8.0219596071542926e-05 -3.2123432674339529e-03  -2.3990290272211624e-05 5.7158543030722499e-06 -2.3578053649382920e-03  -7.8856542055633688e-06 -1.4416839555335807e-05 -3.9431901239820617e-03  -1.7735757872163760e-06 1.5086218951538475e-05 -4.3099670791052411e-03  7.4109562121323777e-07 7.4955260898307349e-06 3.4038186814617539e-06  6.6400192799119067e-07 -2.3352213583663497e-06 9.7122845358734037e-07  -1.9785329050580108e-06 -4.2473527284390026e-06 -3.6380836218843954e-07  1.2219724214570096e-05 -2.9421756254658477e-06 -4.4588300702591618e-03  2.7588501980376522e-06 -8.7928180717165796e-06 -4.4498098601421648e-03  8.8484403726660188e-06 2.9920037368678097e-06 -4.2638982756341235e-03  3.5768416965395459e-05 1.7494381110327296e-05 -3.8899935551762392e-03  5.5554700411807931e-07 -6.2691876011767490e-06 -3.7315526533679170e-03  1.3816271816881737e-06 -1.3440050362037477e-06 -4.5090049146984026e-03  1.9161677739114115e-06 -4.9338207908330403e-06 -4.5857699849325105e-03  -7.4525728279585679e-06 -1.0104289751485834e-05 -4.0033646701587667e-03  -7.2697576665062494e-06 -8.2237346413512725e-06 -4.3125382154866800e-03  8.9311849047193131e-07 1.5167706927832533e-06 -4.6145661391433805e-03  1.7606820105159967e-05 -1.5242114305510424e-05 -4.0460898096996356e-03  4.4098671311152941e-06 -8.2680743129355571e-07 5.7572552933026631e-07  -5.2657108229786465e-06 -2.0276637859011756e-06 6.7215605386793405e-07  3.9899047730272688e-05 -5.6196875880040068e-05 -3.1336898539575603e-03  -3.9696097001869930e-05 -1.0469079006336154e-05 -3.1397525271198703e-03  2.2274159961328568e-06 5.3818281949021156e-05 -4.1948576535990132e-03  2.9113122242811335e-06 3.8332423439915847e-05 -4.0053941142075607e-03  9.4261559820975480e-06 2.9066361828489136e-05 -4.5416988606886439e-03  -5.6360547681045539e-06 3.1257180987384461e-06 -6.8479441071933187e-07  4.3130831886325344e-06 3.5973902146564473e-07 1.5495832998015509e-06  3.3609662752329834e-06 -2.5668962340986002e-05 -4.5190175280446446e-03  1.6989136322220340e-05 2.1295015816442251e-06 -3.3701441770251960e-03  -6.7614712068912687e-06 -1.6477270239133983e-05 -2.9991469301234998e-03  -1.0760359083691181e-05 2.4541769976631019e-05 -4.0175188439986048e-03  3.5496372351352969e-06 3.3102658756070184e-06 -4.6277041580454386e-03  1.6093645387164405e-06 4.5005435883477015e-07 -5.4724612111933570e-06  2.0847663939363718e-07 1.0435724521997101e-06 -3.2965608097491875e-06  -4.1422135326922148e-07 -6.3488389723738223e-08 6.0204329225601130e-07  1.6980897274959929e-05 -5.1679224698978958e-06 -3.6757388850552812e-03  5.6854088327404979e-06 3.3032563999061267e-06 -4.5826510851063214e-03  2.9933374118288498e-06 4.5002198869969409e-06 -4.6297796030824049e-03  -1.1565518453900604e-06 1.3567134443260744e-06 -4.0286118933865996e-03  9.8670077993828747e-06 2.3426846809715645e-06 -4.5428017887811159e-03  -3.3091832499890720e-06 -5.3497209160179112e-06 -4.5845549465400662e-03  8.7443705439251263e-07 3.5519703017025916e-07 -4.4354477849537577e-03  -7.0835527746672039e-07 1.9402487178938274e-06 -3.3504906010788703e-08  -3.6636097518651125e-07 -1.4822246269517804e-06 2.1790577669255484e-07  -6.9717664188010389e-06 -1.0045691585380685e-05 -3.2986340357015272e-03  2.8914016219342162e-06 3.9542949589464857e-06 -3.3063038826115334e-03  2.7371672852317902e-05 -8.1351921641591994e-06 -4.4389840436098969e-03  1.1438393361154984e-05 -4.7520006312415330e-06 -4.3935623255796858e-03  -1.3138268723414901e-05 -3.4619917212326092e-06 -4.5653408743532116e-03  -7.7681246646268310e-07 -3.5015868339511965e-06 -4.1078319550253341e-03  -1.3915985359836534e-05 1.7372735101595425e-05 -3.9731885202405779e-03  -2.4231640116665459e-05 2.5744961357833444e-05 -4.0587297206665868e-03  -6.7288395038744511e-05 5.9607685479481188e-05 -4.2260614287680893e-03  1.4950630670777396e-05 2.6732164119709767e-06 -4.6136599857810635e-03  3.5303154954995657e-05 1.8511594729525928e-05 -4.6636005850754086e-03  2.3947161576517671e-05 4.5763411835913329e-06 -4.2434079892223033e-03  1.9897835617935173e-07 1.9188407009935129e-07 -4.6150047063438643e-03  2.5734280741402007e-05 -1.1333769365842014e-05 -4.5002269399301211e-03  9.8595168495941511e-06 -1.5194087039957633e-05 -4.5812389441767382e-03  4.1299424668973058e-06 -6.1984837444581003e-06 -4.6218958103168431e-03  1.1355953600519255e-05 6.5023756763255572e-06 -4.2297861075496586e-03  -8.7214954674416023e-06 4.6808899065639079e-06 -4.1828712340431706e-03  1.8310708428161710e-05 -1.7883517288797695e-05 -2.6233038306744056e-03  -3.9158999800541089e-06 -1.1429982333638448e-05 -3.9869343285791354e-03  -1.1485268852634866e-05 -1.7080156162844679e-05 -4.5075273785589853e-03  -2.3713706473398531e-05 -2.7583352629627101e-05 -4.1061566695553102e-03  2.9663805265480726e-06 3.4161765629650344e-05 -3.7773171931693456e-03  -2.5471245895137599e-05 -1.1225188257475181e-06 -3.7677890971738641e-03  -1.7646224406570566e-05 -1.3818791084482091e-05 -4.2147162332510637e-03  -1.4414610381981008e-05 -3.3682594832128175e-06 -3.2886767393442567e-03  8.6655932778325544e-05 2.9637329025166302e-05 -3.1407078507822085e-03  -1.8400410057290251e-05 1.5103174945062576e-05 -2.9462217997169911e-03  2.2232456771023074e-05 -4.8762903649847860e-05 -3.7852652753134282e-03  3.8611954965223544e-05 5.2433490905728971e-07 -4.2836573100687343e-03  -2.0332528736945204e-04 -2.9840353235279286e-05 -4.1505833115625546e-03  -1.0889081237259711e-04 -4.4529574755566369e-05 -3.8584450480596087e-03  -8.8785509643109094e-08 -3.2998531309041856e-06 1.5688064817354253e-07  -1.0012555116670432e-06 -8.2758447867988267e-06 -8.9295261485762532e-07  -6.8572996007111255e-07 6.5485387129045608e-06 7.3798394375449127e-07  -3.8219763544363723e-06 -1.6686571065880066e-05 -3.4610688329603247e-03  2.2868598081411726e-05 -5.3743331683216134e-05 -4.3242379225066708e-03  -1.1533710689900052e-05 -1.1603023473858252e-04 -3.9059239425821737e-03  -5.0760038405668872e-05 -6.7687489797832939e-05 -3.8751318001068731e-03  -1.1607676541152330e-05 1.4523499149795554e-05 -3.3579668393897812e-03  2.6868313834413170e-05 1.8351448368699537e-05 -4.4943268200048122e-03  7.7057996911033383e-05 5.7175384535388355e-05 -4.3405026042786345e-03  2.8050830692390958e-04 -8.2779727736688888e-06 -3.1087878409647978e-03  -7.2991404513984566e-06 3.2818225603567442e-06 -3.5428848705498337e-03  2.3434869292772784e-06 3.8388751574573506e-06 -5.5963759580020157e-06  -7.3866000394012630e-07 3.8683176927184611e-06 -4.6946877167353475e-06  4.6559065156489278e-06 8.2840430029577702e-05 -3.8869774716638228e-03  -2.8371561977090004e-06 6.1474780035954031e-06 -3.2815903983359241e