<?xml version="1.0"?>
<VTKFile type="UnstructuredGrid"  version="0.1"  >
<UnstructuredGrid>
<Piece  NumberOfPoints="857" NumberOfCells="3763">
<Points>
<DataArray  type="Float64"  NumberOfComponents="3"  format="ascii">-0.0182597916573 0.126128911972 -0.119588643312  -0.0077641364187 0.0512270443141 -0.07050477713349999  -0.0237180162221 0.16240182519 -0.053058128804  -0.107877351344 0.105669431388 -0.0502408407629  -0.0444478429854 0.116080775857 -0.00235075876117  0.0393674038351 0.112876079977 -0.0491501875222  0.0248903874308 0.0489483103156 0.000152088920004  0.0314915925264 0.114928804338 0.0218031276017  -0.0657326281071 0.0685198307037 0.0497140102088  -0.0355357266963 0.164656624198 0.0508319064975  -0.010538729839 -0.0422629192472 -0.208358153701  -0.0239527057856 0.0135364839807 -0.242119863629  -0.0194642152637 -0.0775559768081 -0.263431429863  -0.08492307364939999 -0.0108216870576 -0.280446648598  -0.08293507993220001 -0.0361198186874 -0.159778758883  -0.0240796487778 -0.0824203491211 -0.148982465267  0.0430508553982 -0.121076337993 -0.234084427357  0.0307756774127 0.0324950888753 -0.198437720537  0.00352357281372 -0.00433266581967 -0.144715368748  -0.0456651262939 0.08372022956609999 0.342343091965  -0.116630032659 0.0117083769292 0.386158525944  -0.08223126828669999 0.0577075146139 0.289406776428  -0.0511222109199 0.00205342215486 0.300772219896  -0.0125984866172 0.0267426930368 0.351842552423  0.0303636882454 0.0561947338283 0.391145974398  -0.0524924062192 0.0543583929539 0.40361738205  -0.07944945245979999 0.130002260208 0.441037595272  -0.000730989675503 0.119443200529 0.385622620583  -0.078488714993 0.137875169516 0.332541137934  0.0142801422626 0.110509291291 0.27100610733  0.0224165506661 0.08303219079970001 0.331783413887  -0.0170432701707 0.161798536777 0.30022162199  0.000811119796708 -0.0515509881079 -0.08419398218390001  0.0888616070151 -0.015075173229 -0.0776951387525  -0.0989535748959 -0.0518730916083 -0.08125374466180001  -0.0433920919895 -0.09785594791170001 0.0106235472485  -0.0488061010838 0.0295096840709 -0.0131453983486  -0.25 0.25 0.5  -0.166666666667 0.25 0.5  -0.25 0.195066730511 0.445658150344  -0.19506166517 0.25 0.445542865294  -0.0213422998786 -0.126349791884 -0.045622177422  -0.117952652276 0.0158270020038 -0.16616243124  -0.0531469397247 0.0490713231266 -0.13630309701  0.0358348339796 -0.131537660956 -0.134171053767  0.0583617314696 -0.115307979286 -0.0462360456586  0.010585160926 -0.0606908276677 0.314250290394  0.078067921102 -0.133790805936 0.331458956003  0.0206208750606 -0.104583717883 0.36723652482  0.0300164371729 -0.13569638133 0.270959883928  0.0797956883907 -0.07311873137949999 0.388136893511  0.0291880238801 -0.0850581228733 0.220644980669  0.0788302049041 -0.07555303722620001 0.284453928471  -0.0465739220381 -0.108428947628 0.305151432753  -0.056692365557 -0.0812899768353 0.234353885055  0.10282895714 0.0630551427603 -0.0452189296484  0.178613707423 0.153893724084 -0.0703043565154  0.0750898644328 0.130835875869 -0.116260357201  0.0179002508521 -0.0400723591447 0.396018892527  0.07961820065980001 -0.020668130368 0.232235535979  -0.00726175494492 -0.022667773068 0.242156982422  0.0524490773678 0.0171752162278 0.310696065426  0.0103002395481 0.0813155695796 0.107229083776  0.00225681974553 -0.008687185123560001 0.0457225777209  0.177950121638 0.25 0.0405701099774  0.151375159621 0.202163234353 -0.00268407491967  0.13042794168 0.172564610839 0.0599601529539  0.184557154775 0.16295710206 -0.00737970136106  0.0827306732535 0.011830884032 0.0299163535237  0.106673434377 0.0676268041134 0.0663062110543  0.25 0.25 0  0.25 0.177947182503 0.0435581305687  0.0251978598535 -0.0201241951436 -0.0233656335622  -0.25 -0.25 0.25  -0.175495340629 -0.25 0.295351832328  -0.25 -0.175776260788 0.294629825204  -0.164853364229 -0.189889326692 0.246240898967  0.111295968676 0.25 -0.00354384794953  0.0417815256417 0.25 0.0264120515999  0.0577150444892 0.25 -0.0418173710713  0.035034801811 0.196921139956 -0.0497792549431  -0.115254960954 0.0352221727371 -0.0357825122774  0.0360979661345 0.0743419006467 -0.130612716079  0.08110298216340001 0.0143552683294 -0.135737240314  0.0281950440258 0.110801942647 -0.38559025526  -0.000352636008756 0.154027625918 -0.45018479228  0.0220217909664 0.07910815626379999 -0.445265561342  -0.041934799403 0.09297795593740001 -0.440330862999  -0.115356497467 0.128115877509 0.0303980205208  -0.08144567906859999 0.192924261093 -0.0396481454372  -0.0503155887127 -0.140062868595 0.370642662048  0.0181560348719 -0.191118896008 0.319997102022  -0.09442232549189999 -0.0766885429621 0.347179293633  -0.10306725651 -0.0245223585516 0.261891931295  -0.0371639840305 -0.192689821124 0.258922994137  -0.08778057992460001 -0.193450272083 0.293951839209  -0.116932563484 -0.137108251452 0.278956532478  -0.0434515699744 -0.19969072938 0.340430229902  -0.016621209681 -0.143479332328 0.208528921008  -0.0799133181572 -0.177766740322 0.206858798862  -0.0340202823281 -0.07231882214550001 0.405357718468  -0.153045728803 -0.0703692808747 0.28540495038  -0.0647673308849 -0.069349065423 -0.297796696424  -0.0468406006694 -0.118580199778 -0.331259429455  -0.0636249184608 -0.122360698879 -0.235275790095  -0.137311711907 -0.115820750594 -0.279358655214  -0.25 -0.25 0.333333333333  -0.00222280388698 -0.0275516584516 -0.327156513929  0.0233143884689 -0.124395690858 -0.330935031176  -0.00544846989214 -0.0444226972759 -0.392852008343  -0.07202984392639999 -0.0450558848679 -0.379192590714  -0.128861442208 -0.0482712239027 -0.325591087341  -0.0319190612757 0.25 0.27473160228  0.0259018652141 0.196524605155 0.343851953745  -0.0424101948738 0.196461260319 0.324036180973  -0.08801463991400001 0.193724930286 0.280150324106  -0.051391992718 0.129726842046 0.244459152222  0.0793330296874 0.131078347564 0.273738384247  0.0304427426308 0.197590425611 0.258007407188  0.139736711979 -0.103549621999 0.308288753033  0.117407329381 -0.00031748006586 0.284001767635  0.17845864594 0.0137020656839 0.2717012465  0.133446916938 -0.07468281686309999 0.252671837807  0.193237304688 0.0103836003691 0.32706490159  0.108656100929 -0.016409387812 0.370573759079  0.195593327284 -0.0705924406648 0.374003827572  0.204297035933 -0.0882691517472 0.283604085445  0.15987212956 -0.0232784096152 0.211559042335  0.103109702468 -0.0715631917119 0.185957938433  0.25 -0.177950121638 0.0405701099774  0.25 -0.111295968676 -0.00354384794953  0.168315500021 -0.181550845504 -0.0129796266556  0.203061833978 -0.0839376300573 0.0201103240252  -0.123973377049 0.0421161539853 0.0831994190812  0.10652089864 0.041568480432 0.133020982146  -0.00508088478819 0.00464248098433 0.118765294552  0.0384838804603 0.0542355030775 0.219570666552  0.0556482039392 0.09942726045850001 0.165778696537  0.25 -0.25 0  0.25 -0.17904445884 -0.0421267671166  0.0085972994566 0.139411628246 0.206887423992  -0.0427397117019 0.0734880268574 0.199836358428  0.25 -0.25 0.166666666667  0.177338154858 -0.25 0.209433902167  0.178222204231 -0.25 0.126578397361  0.180748909712 -0.154124230146 0.180074676871  0.118582360446 0.0498475395143 0.233844980597  0.113276541233 0.115120351315 0.208414897323  0.068451166153 0.123325429857 0.09300038218499999  0.08695217221980001 0.18308262527 0.11987875402  0.1366494596 0.0978636816144 0.125807240605  0.0170362386853 0.165571182966 0.116205818951  -0.075325883925 -0.13042730093 -0.120773427188  -0.191016584635 -0.1764793396 -0.0778442546725  -0.102759346366 -0.20253264904 -0.07015967369080001  -0.126150563359 -0.115044787526 -0.0573479756713  -0.138729035854 -0.104583211243 -0.134180948138  -0.147993162274 -0.138949289918 -0.203295826912  -0.180331096053 -0.192031860352 -0.160557568073  -0.194399222732 -0.0846866071224 -0.148938387632  -0.11259970814 -0.078034222126 -0.193649172783  0.0326924659312 -0.122268341482 0.0296003930271  0.0215157996863 -0.180560961366 -0.0757267251611  0.0956164896488 -0.0493310950696 -0.0164182558656  0.112129375339 -0.112067811191 -0.105549775064  0.127802968025 -0.106147237122 -0.0110959038138  -0.0854129120708 -0.015297700651 0.056893799454  -0.0204317308962 -0.0795602425933 0.117458000779  -0.178222204231 0.25 0.126578397361  -0.177947182503 0.25 0.0435581305687  -0.107976816083 0.25 0.0905854563709  -0.157577678561 0.178241759539 0.0969507619739  0.25 -0.25 0.333333333333  0.25 -0.25 0.25  0.175776260788 -0.25 0.294629825204  0.25 -0.175495340629 0.295351832328  0.0932372882962 -0.0430554822087 0.0724518448114  -0.044769000262 -0.00661279587075 0.403999477625  -0.194478780031 -0.0247275307775 0.332954645157  -0.173761367798 -0.0806607827544 0.396263659  -0.137637495995 0.00523930834606 0.315887242556  0.0864742994308 -0.139340251684 0.176064118743  0.105438224971 -0.136641919613 0.253711819649  0.0308670303835 -0.25 -0.136809572586  0.0367561832589 -0.25 -0.219583441074  0.0925811678171 -0.20055809617 -0.19996842742  0.0127155454829 -0.193433105946 -0.225977659225  0.0415658205748 -0.200880005956 0.196522325277  0.0373581312597 -0.119548290968 0.120048768818  -0.0954102815882 -0.25 0.346414074494  -0.101368582479 -0.25 0.251933327382  -0.0374909392175 -0.25 0.286229296012  0.0852289572358 0.109103307128 -0.27055695653  0.07707493752239999 0.127253636718 -0.199824258685  0.128097131848 0.07648140937090001 -0.209757223725  0.154867321253 0.13628205657 -0.212952241302  0.08678253740069999 0.189277544618 -0.274375885725  0.127699971199 0.0803090333939 -0.326344817877  0.0577741526067 0.0601542405784 -0.31936660409  0.0525139421225 0.129102528095 -0.326874881983  0.0251371748745 0.175572559237 -0.261228203773  0.0199144631624 0.0927290171385 -0.265960127115  -0.148952946067 -0.121583275497 -0.374568909407  -0.25 0.177950121638 0.0405701099774  -0.25 0.111295968676 -0.00354384794953  -0.175531774759 0.135734900832 0.0562076568604  -0.178730383515 0.191659659147 -0.00562386959791  -0.0244714934379 -0.108516678214 -0.387223660946  -0.09279609471560001 -0.170035287738 -0.445968538523  -0.0281062982976 -0.0
[...]
<PointData  Vectors="f_104"> 
<DataArray  type="Float64"  Name="f_104"  NumberOfComponents="3" format="ascii">-4.8470575672689004e-05 -4.0474959095268319e-05 1.2617539157591365e-01  -1.2579931529630264e-04 -5.6056569975722890e-05 1.4337801533641265e-01  7.0652689859823951e-06 -1.4144792670934769e-05 1.1201820935089989e-01  -7.1821211837659152e-05 1.0585376413931028e-04 1.2038459415813475e-01  1.5430675465474941e-04 3.3470950794304050e-05 1.2722230106802154e-01  1.8885014124686428e-04 2.8385988617628347e-04 1.2882980334591898e-01  7.6023063554142323e-05 -3.6485819581884544e-05 1.4290071524916650e-01  1.1642551253605139e-04 4.3602457715375828e-05 1.2875025520813854e-01  8.1710628090173311e-05 4.3108492760092524e-05 1.3541722385770569e-01  -4.1308873693153556e-05 -1.0521339502193935e-04 1.1014359841960852e-01  1.3581641994390414e-04 -5.2880750674609945e-05 1.4476824231470956e-01  -1.5012166001834298e-05 -1.8683274665258247e-05 1.4635234551466697e-01  -3.2661493313923603e-05 -1.0016196881861154e-04 1.3943100890026389e-01  -7.3299293910843150e-05 3.1109688186831302e-05 1.3844887638434328e-01  -1.5816663056011525e-04 -1.7922630271538520e-04 1.3694084577259805e-01  7.4924413905472121e-06 -2.4887884590181240e-05 1.3757641072409504e-01  3.9041557149323260e-05 -1.1096965491084858e-04 1.2729100528934409e-01  1.6680583566319606e-05 1.3500389246461449e-04 1.4465958171963536e-01  3.7098928558605003e-05 3.0545446518101316e-05 1.4677086777406645e-01  -2.1498865151128371e-03 3.8263230206777351e-03 1.3093288119612576e-01  -6.6580869856940304e-03 4.3521907943574968e-04 1.2366124732578195e-01  -1.5243492027167593e-03 1.0466878525297659e-03 1.3190044550829552e-01  -9.7845792565982772e-04 1.5944096473022936e-04 1.3846398939364460e-01  -5.3791150747106524e-04 1.1702824087932032e-03 1.3640368222209964e-01  3.2708469268841081e-03 4.2781857045527819e-03 1.2991245326163409e-01  -5.0135676043227802e-03 4.8734072753614174e-03 1.2739982173171996e-01  -8.1004693185032714e-03 1.1505960986961550e-02 1.1822412135412670e-01  -2.8368038434795084e-04 7.2573588613950857e-03 1.2301852425430808e-01  -2.8891399291963733e-03 3.3252067997429158e-03 1.1698124732727988e-01  -6.8780093786728182e-05 1.1473581719276887e-03 1.2977593313010222e-01  1.1747720699479376e-03 2.9217884820383847e-03 1.3333725904262417e-01  -4.7626104319332041e-04 1.5851605212133513e-03 1.1074369704185105e-01  1.3199099744079095e-04 -1.9941929488622312e-05 1.4351029862053535e-01  7.9371999300177813e-05 -1.6922611735902107e-04 1.3677999263017715e-01  -8.8024497807172745e-05 -6.0243734268916474e-05 1.3194045520673273e-01  -1.9121529633008393e-04 -9.6029230436691584e-06 1.3237077871912059e-01  7.9952964093136863e-05 -1.9521369888197369e-04 1.4228020935326330e-01  -1.0240221555940111e-02 8.7408207007719386e-03 1.4078342383312817e-01  -6.9521660661099292e-03 2.2005164026465346e-03 1.2906948897362405e-01  -8.4693541393653614e-03 9.7718866743552579e-03 3.6844597101420545e-02  -7.3755804498291892e-03 5.9195433823713084e-03 4.2322537168546490e-02  -2.2426011992078841e-04 -4.8724229668626073e-05 1.2555649821461037e-01  -2.5074217408150765e-04 1.7956406823497282e-04 1.2968651723068528e-01  1.1655152232867676e-04 6.3140715643773755e-05 1.4037624053839440e-01  1.0373710328761108e-04 -5.6480254218596215e-05 1.2370178485687573e-01  1.1007433623729966e-04 2.3274594295186990e-04 1.2605920083498842e-01  1.5906122246128998e-04 -1.7295961175719861e-03 1.3694567991988293e-01  2.5988670166454731e-03 -3.1711777615700439e-03 1.1803086120747899e-01  1.1496329720477954e-03 -6.4389119316258089e-03 1.2647657691158135e-01  3.6488111667512161e-04 -7.9458814246409796e-04 1.2070767088511763e-01  5.9530511597960583e-03 -5.6443437039369543e-03 1.2480502338260319e-01  2.0313377134459039e-04 -3.2537099676707286e-04 1.3499808352939405e-01  1.4159932027316968e-03 -1.0111489327748401e-03 1.3060112209044683e-01  -9.8280828147644518e-04 -1.9792384217267723e-03 1.2698730043789255e-01  -2.6215777359904811e-04 -1.7747530072601981e-04 1.3328372529576693e-01  5.8283064275695461e-06 1.3944219069286814e-04 1.2980120071065523e-01  -5.6603173156466833e-05 8.8120836934717266e-05 9.0126448709962934e-02  2.3520770036092659e-04 1.9064829756572111e-04 1.2016712913466507e-01  2.1382519260759320e-03 -3.0188876986671199e-03 1.3020793598992750e-01  2.6702680237802829e-04 1.3172725527229280e-04 1.3635381073302863e-01  3.1665861728457629e-05 3.9561618965663252e-05 1.4205712474303997e-01  1.3298912857264268e-03 6.1059309308248528e-04 1.3771738333933231e-01  4.9755938247532964e-05 1.6977500880142242e-04 1.3707969641669110e-01  -1.2490680049061061e-04 -1.4205494502543241e-04 1.4599314596808133e-01  2.3848031300333571e-04 1.9703709009538946e-04 5.8302675248821358e-02  -2.0514074786222625e-04 -1.7589917101153897e-04 8.2418606769909558e-02  1.2865308179642426e-04 -1.0489388430149168e-04 9.7097996395103053e-02  1.7551740027919348e-04 1.1140430388630560e-04 8.7398664239975790e-02  8.6322207594268413e-05 1.3849330241070867e-04 1.3801863255933150e-01  9.0461770727339250e-05 1.7401745299102351e-04 1.2680293652128441e-01  2.3472323412373347e-04 1.7380509116511142e-04 5.8180925003596957e-02  2.4178417270077031e-04 1.7088638007732048e-04 5.8300698075432478e-02  -3.5381253931628599e-05 2.1567768045060447e-04 1.4587090801633970e-01  -7.5005566078552765e-04 -9.1461702286014905e-04 5.7767493847212595e-02  -1.3989437899758924e-03 -1.3979768323107255e-03 5.5357385128290845e-02  -1.0664155877988979e-03 -1.5362866786248553e-03 5.6414874945980471e-02  -4.3944255745862273e-04 -1.2336726897176442e-04 8.4294818623318640e-02  1.1038390885407410e-04 2.0186115502705181e-04 5.8078426359698072e-02  6.3887885352557103e-05 1.8597477185825024e-04 5.8209395532168098e-02  6.5341280271908963e-05 1.5097653079655942e-04 5.7917735584033223e-02  4.7478493934759999e-04 1.3940877912336513e-04 9.5039420795073881e-02  -9.1922429016770370e-05 5.8725756316175867e-06 1.2918832805328484e-01  1.8989434482956605e-05 1.6695438809620893e-04 1.3825741232443994e-01  2.5590476858837436e-04 7.1289220978537445e-05 1.3889006268358578e-01  2.8852373449825491e-05 8.5227694303651683e-05 1.3112750712862006e-01  -2.7287852174465191e-05 3.3497451388409060e-05 1.1642953769668267e-01  -4.6078080551682159e-06 9.3701959318639713e-06 1.3906812320950360e-01  -2.1163048900438492e-05 2.3741339156509496e-05 1.3480055466537266e-01  -5.7663571886782803e-05 9.2938882026257489e-05 1.1359709722309839e-01  -1.4415106388960739e-04 -1.1488060254240812e-04 9.4147654866390665e-02  -2.5539771995671482e-03 -5.5521652295392639e-03 1.1670585367513564e-01  3.2433462332133673e-04 -1.2001537866828487e-03 9.5726932773491286e-02  -3.9670108759151078e-03 -3.6034217572019278e-03 1.2659315843217539e-01  -1.2523281499208785e-03 -3.7475014459071909e-04 1.3103635993707463e-01  2.3753867549199611e-05 1.7799653844276451e-05 9.5626306831719188e-02  -9.4446715591341320e-04 -5.2533250764595163e-04 9.2023561806897261e-02  -9.0737771776841091e-04 -6.2275543865989629e-04 1.1082884157405380e-01  -2.1750314180429141e-03 -2.2724897233272062e-03 9.1147545180897321e-02  6.3664887917923884e-05 -3.2875957573210151e-04 1.1814100588663368e-01  -2.6239518070449928e-04 1.1268044834692701e-04 1.0086138284170133e-01  -2.8951954589409366e-03 -6.8483791907782889e-03 1.2576582731278987e-01  -1.0439613545912493e-03 -1.1815674412659191e-03 1.1259678533931758e-01  -7.2552280566275364e-05 -1.4348081182105767e-05 1.3679131677175899e-01  -5.8613469304869844e-05 -4.4155459028602577e-05 1.2752942735346270e-01  -7.9163078091287764e-05 -3.0302788336047405e-04 1.2474902274065620e-01  -6.3737931505184324e-05 -1.0457202047924696e-04 1.1160239278380331e-01  -2.0390823610014815e-03 -2.4883857901153968e-03 5.3575735935167713e-02  -2.4188159304520319e-05 -1.0880061177553362e-04 1.4665964233985285e-01  -5.4679710572097579e-06 -5.8637006888699688e-05 1.2717665643439102e-01  -4.2299146186399983e-05 -6.6145645901976452e-07 1.4500739411062155e-01  -5.1197155690802716e-05 -1.4019972172353844e-04 1.3875661846829976e-01  -8.2041137585461845e-05 -2.3785747864182742e-05 1.2413647547754965e-01  5.1701673319839157e-04 1.4528660351345859e-03 5.3755108910934137e-02  1.5518062899208039e-03 2.4010423991366069e-03 9.2617666650422176e-02  -1.0495652145238929e-03 2.1860088093977599e-03 9.2512562881813601e-02  -1.0449754491236383e-03 2.2029818055900523e-04 9.2870726559436012e-02  -8.7063434749496814e-04 3.3859520842573920e-04 1.2231061594081756e-01  9.1921950036662171e-04 8.8455444767762334e-04 1.1882435939090182e-01  3.3411217738919390e-04 9.2712377172410399e-06 9.2690252632202333e-02  1.4736495570689945e-03 -1.1097443410596482e-03 1.1272074174702090e-01  1.5151124441493426e-03 -3.4529194032898776e-04 1.2805411534954705e-01  5.7793564440798207e-04 1.2075016960123634e-04 1.0339191921732158e-01  6.4394040367848795e-04 -4.8197051877009011e-04 1.1847804922463857e-01  1.8124010185008065e-03 -3.0117196715227813e-05 9.4559699384297646e-02  5.7571579164248342e-03 -4.9686770814156016e-04 1.2568287985511328e-01  2.6461847888987282e-03 -2.9149895720807640e-03 9.2003380092670423e-02  1.5726218386733892e-04 -7.0172009051850108e-04 8.6845305634620715e-02  -2.0131469313575575e-05 -1.9129896296626991e-05 1.1189287425796048e-01  2.3733167299078828e-04 -2.9233891747079720e-04 1.2768195041419536e-01  1.7913718540231858e-04 -2.2591739758816198e-04 5.8349329237639878e-02  1.9024606388705779e-04 -1.8649356598688581e-04 5.8175964031407505e-02  2.8818564037479360e-04 -1.6850875821766093e-04 8.7314699566767212e-02  -1.0919960084065092e-04 -2.8530872572751927e-04 8.8669833408260568e-02  1.5232389372027421e-05 1.5238051992090204e-04 1.2567155135654234e-01  -1.0434571056516979e-04 -5.2016429184784755e-05 1.3077094754757329e-01  -9.0560494653226325e-05 2.2127536372959863e-04 1.4652887093432457e-01  2.7814437367779668e-04 2.6641528977642078e-04 1.3966945514020065e-01  1.9377616505406853e-04 -6.0846778959916989e-05 1.2971471514040780e-01  1.8707550236150527e-04 -2.4680750760856259e-04 5.8207175733082948e-02  1.2126196676230647e-04 -2.2069869399877565e-04 5.8018158381263493e-02  2.1436344169189727e-04 -1.2546834636109310e-04 1.2077970594201323e-01  -3.3668302268683272e-05 1.2503382203815104e-04 1.3659611586005588e-01  3.0116260652955049e-04 -3.1142135376527975e-04 5.8592233026755730e-02  4.3629261150987081e-04 -4.4377561758887716e-04 5.8378196441149978e-02  2.6495260707183789e-04 -2.7446497765722371e-04 5.8582913200495773e-02  -1.1951624083618482e-04 -8.5811186267275593e-05 8.9456385651115716e-02  5.9657832334449523e-04 5.6146813392977382e-04 1.2638543848173892e-01  4.3433553105717276e-05 2.1864669985523856e-04 1.1700323567639304e-01  -2.4225679670503478e-04 -3.4100804036633716e-05 1.2211807997725627e-01  2.7617830935075391e-04 1.0716088700905508e-05 9.8661956438647710e-02  -6.3944435306976930e-05 1.2216654235693155e-04 1.1414003891947865e-01  1.0290336137710889e-04 2.4474629278557498e-04 1.1060483464623050e-01  -2.4011100225811776e-04 -1.5055955246031353e-04 1.2014573151433265e-01  1.3362822774263779e-04 -5.9634726777725958e-05 8.1122829627596246e-02  -1.5964243604046135e-04 1.4982674076035304e-05 8.6749246040518285e-02  2.8155228562638465e-05 -2.9654183903526915e-04 1.1541566740420765e-01  -8.4785405613001691e-05 -8.7230617903351712e-05 1.1355595402867864e-01  -2.3434088262015959e-04 -2.0234327829687289e-04 1.0330929294672278e-01  -2.4761178847590585e-05 6.4344303604181664e-05 8.0521090869293696e-02  -2.2652633806548208e-04 -2.0448393928249706e-04 9.2903796028084629e-02  -1.1497300556365429e-04 4.6895376195985778e-05 1.2481861418844795e-01  1.4493670041239217e-04 3.2423149341680316e-05 1.2642837764243706e-01  1.6432029956980216e-05 -2.5460587644993897e-04 1.0358656480351196e-01  2.0115318239449250e-04 -1.7701965044229802e-04 1.3251210032878000e-01  1.8052883147523543e-04 -2.6881012859409554e-05 1.1859264540722265e-01  1.3229668397101156e-04 -3.0805192529460553e-04 1.1627408635144899e-01  -4.4141133572296978e-05 -3.1409148122837660e-04 1.3756471969047060e-01  1.2329256869142998e-05 9.8407642419504293e-05 1.3767184064098653e-01  -2.4564760150570379e-04 2.4955895888176499e-04 5.8479717138290456e-02  -1.7737226975447762e-04 2.4570811362471323e-04 5.8302613467122469e-02  -1.4979209458607776e-04 2.1354067054302911e-04 5.8381283285902405e-02  -6.9198823087781103e-05 6.3177794524402577e-05 9.0145433403262351e-02  1.2420753569352993e-03 -1.5390188883599252e-03 5.5988780451429125e-02  5.2321868102645787e-04 -5.6536163150047866e-04 5.8095226687071039e-02  1.0812707930785252e-03 -1.3327521522389231e-03 5.6416297877420592e-02  8.9308300830635075e-04 -1.2853507970679167e-03 5.6505416034938312e-02  -1.0949549502713796e-06 -2.2387907488229960e-04 1.3356137073874627e-01  -4.2220141361177963e-03 -2.8608761507843391e-04 1.2909382813532250e-01  -2.2137585548353375e-03 -7.2589358294214152e-04 9.3703720542354471e-02  -6.0368984073532299e-03 -4.5370311854452932e-03 1.0421355443889542e-01  -2.6721161653396972e-03 -6.8821213487162339e-05 1.2073202798827529e-01  2.5349763944838433e-05 -1.3774442988663573e-05 1.1624862152749095e-01  5.3045000455342027e-04 -5.7749507418458179e-04 1.1251713098159587e-01  3.0689616739591286e-05 -1.5998957133224752e-04 5.7584735830930697e-02  3.1107213896347532e-05 -1.6456048365427314e-04 5.7324529114152999e-02  1.7458305665403933e-04 -1.9638153516401491e-04 8.8869885644122917e-02  6.4287584188588430e-05 -1.4817798820286764e-04 9.7125124391763198e-02  9.5639096921442372e-05 1.7432991363393953e-04 9.1639929672247808e-02  2.5213664043958366e-04 5.0930228019390589e-05 1.2772728248929341e-01  -1.4044866579554769e-03 -3.6666653177978574e-03 4.8970404250758222e-02  -6.0127376585262713e-04 -5.2985648856798586e-04 5.7292867497864261e-02  -5.3645102546644109e-04 -9.7350529781566519e-04 5.4289118946845044e-02  7.9017031074057775e-05 1.2667160410174461e-04 1.2516749840597891e-01  3.7871165128602270e-05 1.1530255861415880e-04 1.2125329646803527e-01  8.8799442206655084e-05 1.2364838336168393e-05 1.2076440166128367e-01  1.3364413321161306e-04 -5.1164237893822258e-06 1.0167237334421056e-01  5.8085702170461753e-05 5.7535457792682286e-05 9.5131517269791729e-02  9.7370010834165539e-05 7.3823544649454309e-05 1.2085133605274363e-01  4.5212823323704176e-05 8.0585012333441561e-05 1.3900027083613350e-01  4.5403544021654418e-05 3.0135554615557340e-06 1.2372138391507977e-01  1.5982846212502136e-05 1.1030747601167510e-04 1.0630455385313003e-01  1.2844074733776755e-05 5.4493428562637711e-05 1.3602074321250007e-01  -4.3629838834511609e-05 -9.3130952671110034e-05 1.0682374943452579e-01  -1.8233095065502424e-04 2.3516397177268460e-04 5.8298070947989306e-02  -1.5350321343018518e-04 1.6037009137673258e-04 5.8166333421374790e-02  -4.4403157264032310e-05 -2.4196308967852704e-04 9.5287503543210667e-02  -4.4379238704965140e-05 -1.8646036699430504e-04 8.1038651268697123e-02  5.5060710561642470e-06 -5.7356835973246462e-05 1.3177161934743872e-01  -1.5814985806043504e-05 5.5007561988346557e-06 1.0361248337810558e-01  -1.3095342028622168e-05 -9.2746032525180848e-06 1.3861266057469931e-01  -1.5607290394088855e-04 2.4001818614688154e-04 5.8162126542207648e-02  -1.3691422511715284e-04 2.1634321469235303e-04 5.7967387591454388e-02  2.2756741801937633e-04 9.9928920616014421e-05 1.1228671456774976e-01  4.7024520607224061e-05 -5.6773095018137191e-05 9.6189547850110774e-02  7.2403553820094322e-05 -1.6302346544664859e-05 1.0734934218752472e-01  1.4333240070113132e-05 -1.0346515238342828e-04 1.0220694629141908e-01  1.1822873184438791e-05 -1.8757286973251227e-04 1.3732076024130974e-01  -2.0740537789011845e-05 -3.3091565891632841e-05 5.6907207914848448e-02  -1.2998599709508648e-05 -3.5338597241989330e-05 5.6887384260185837e-02  -4.4017055425109783e-05 -8.7587920414835453e-05 5.7074013297633452e-02  -9.4082782925893575e-05 -2.6862503792591996e-05 9.5711786874900062e-02  4.5947551614582386e-05 -3.6998779997351101e-06 1.3893237134668193e-01  1.3797773020795521e-05 -6.5311152161268108e-05 1.3952031322526659e-01  3.4701325261610362e-05 2.4309214896007703e-04 1.2155090027512973e-01  1.3325847682077552e-04 2.9391236292940581e-05 1.3086320545440910e-01  7.7146619250719289e-05 1.3690299493307912e-04 1.3317486931424102e-01  9.4640410178991414e-05 5.6511623758093362e-05 1.2722880178467177e-01  -2.0683266191826033e-04 -2.4723313782016665e-04 5.8315255594830070e-02  -1.3749913497280064e-04 -2.0759785545450862e-04 5.8134197258259739e-02  1.1222835268506961e-06 -1.9477629163939890e-05 8.2548473196318667e-02  -1.8210679879701093e-04 3.1021103942192520e-05 9.2236334975796586e-02  -1.5455382959172573e-04 1.3307000312549197e-04 1.1953357794228407e-01  -1.6334329347016590e-04 2.1862440224008185e-04 1.2450362654601188e-01  -2.2341609706071585e-04 -1.6136398221774849e-04 1.3626483857220453e-01  -3.1209814139486572e-04 -3.5654748389738765e-05 1.2762395418757341e-01  -9.0231375951578768e-04 1.2891483734274525e-03 1.1494372855854088e-01  -1.1515993099976388e-03 5.4489141873152334e-04 1.1615716034436564e-01  -4.6536619510753538e-03 4.6166488885590329e-03 1.1529937960398727e-01  -2.1424135132568984e-05 7.6028132738774978e-06 1.4381463105088810e-01  -3.2729719189743130e-05 -2.6635925269693880e-05 1.3751135134794351e-01  -9.9411886659063066e-05 4.1410194486623026e-05 1.2928605612655472e-01  4.0270722198898482e-05 1.1358832328349081e-05 1.4670729452467554e-01  -2.5945099197484197e-05 6.5148097855641146e-05 1.3286274425052641e-01  -7.1243749180422705e-05 5.0790586631776223e-05 1.3443870439154335e-01  -7.1151946514939475e-05 3.7839158323121955e-05 1.4221569827044855e-01  8.2524584586069640e-05 1.9542213085017557e-06 1.2743162168764782e-01  7.2442658430161056e-05 -1.8709644778640917e-05 1.2876753675636721e-01  -4.0546671787734026e-06 2.1685928867305800e-06 9.1096724413678137e-02  6.6146658336554464e-06 5.5825452150808610e-05 1.0797659088547899e-01  5.2917459139273737e-06 2.8326338641709898e-05 1.1057096653673865e-01  6.6154075066954867e-05 -4.0914542595006972e-06 8.4251391069993589e-02  5.6193736373442985e-05 6.6791736733698033e-05 9.4379375095175480e-02  2.4096660341577362e-05 1.6111212713625461e-04 1.0750587488166713e-01  1.2411045969162036e-04 -7.2286151064142876e-05 9.4857561792759545e-02  9.7600812358781454e-05 1.3672992741778632e-04 9.1701335364885450e-02  1.2045574532937116e-03 -2.7943587027922548e-03 8.5323929024264930e-02  1.9512994289041638e-03 -1.2868908215758583e-03 9.0999121434379007e-02  1.3571545404729828e-04 -2.6908732953936096e-04 8.3208502401330459e-02  5.8799461014981637e-03 -5.8129452235697789e-03 1.1410930567900722e-01  -1.0052923120548238e-02 -5.3349231097425502e-03 1.2033018293134709e-01  -7.8122771058168903e-03 -1.0828054135816828e-02 1.2029867488597876e-01  -4.3854003857522153e-04 3.7482518121462980e-04 5.8312679470187971e-02  -7.7060831701069709e-04 4.8056410024478058e-04 5.7228879408474272e-02  -3.0572264002002008e-04 3.0622731888291460e-04 5.8444747655392766e-02  -2.6572753236481843e-05 -3.5101302088958179e-04 8.5070388725906429e-02  2.3903966896567197e-03 -9.9778557205687079e-03 1.2099226569804818e-01  5.3106597244484692e-04 -1.4897931666299612e-02 1.0977647811572484e-01  1.3103509131588728e-03 -4.9266458240807198e-03 9.5087644977699989e-02  -2.1209838669732431e-03 -1.6454902699817582e-03 8.7886756682578199e-02  2.9377412496500968e-03 2.0540716851390880e-03 1.2314979257580848e-01  4.8585375859056508e-03 4.8217088069393418e-03 1.1497132220257300e-01  6.6196205721390008e-03 4.7441713817413852e-03 1.0371666324065919e-01  1.1906918444763493e-03 1.4449637801756156e-03 1.0228251142939207e-01  -1.3696894917220836e-05 -3.9620835396979759e-05 5.6852421362749095e-02  4.8448392441505764e-06 -3.0654392347013421e-05 5.6845433989745307e-02  -3.0776084420386397e-05 -3.8572798069465117e-05 1.0638899620115629e-01  -7.5671816685595611e-04 6.4365118457180876e-04 5.7946705862920972e-02  -1.2912947269065958e-03 1.3793266879765754e-03 5.6354558454687585e-02  -3.5002316084516838e-04 4.2080131336838137e-04 8.7537680116583250e-02  5.7901671346658129e-05 -9.0413838619405598e-05 1.4229598592822590e-01  -5.9832