<?xml version="1.0"?>
<VTKFile type="UnstructuredGrid"  version="0.1"  >
<UnstructuredGrid>
<Piece  NumberOfPoints="857" NumberOfCells="3763">
<Points>
<DataArray  type="Float64"  NumberOfComponents="3"  format="ascii">-0.0182597916573 0.126128911972 -0.119588643312  -0.0077641364187 0.0512270443141 -0.07050477713349999  -0.0237180162221 0.16240182519 -0.053058128804  -0.107877351344 0.105669431388 -0.0502408407629  -0.0444478429854 0.116080775857 -0.00235075876117  0.0393674038351 0.112876079977 -0.0491501875222  0.0248903874308 0.0489483103156 0.000152088920004  0.0314915925264 0.114928804338 0.0218031276017  -0.0657326281071 0.0685198307037 0.0497140102088  -0.0355357266963 0.164656624198 0.0508319064975  -0.010538729839 -0.0422629192472 -0.208358153701  -0.0239527057856 0.0135364839807 -0.242119863629  -0.0194642152637 -0.0775559768081 -0.263431429863  -0.08492307364939999 -0.0108216870576 -0.280446648598  -0.08293507993220001 -0.0361198186874 -0.159778758883  -0.0240796487778 -0.0824203491211 -0.148982465267  0.0430508553982 -0.121076337993 -0.234084427357  0.0307756774127 0.0324950888753 -0.198437720537  0.00352357281372 -0.00433266581967 -0.144715368748  -0.0456651262939 0.08372022956609999 0.342343091965  -0.116630032659 0.0117083769292 0.386158525944  -0.08223126828669999 0.0577075146139 0.289406776428  -0.0511222109199 0.00205342215486 0.300772219896  -0.0125984866172 0.0267426930368 0.351842552423  0.0303636882454 0.0561947338283 0.391145974398  -0.0524924062192 0.0543583929539 0.40361738205  -0.07944945245979999 0.130002260208 0.441037595272  -0.000730989675503 0.119443200529 0.385622620583  -0.078488714993 0.137875169516 0.332541137934  0.0142801422626 0.110509291291 0.27100610733  0.0224165506661 0.08303219079970001 0.331783413887  -0.0170432701707 0.161798536777 0.30022162199  0.000811119796708 -0.0515509881079 -0.08419398218390001  0.0888616070151 -0.015075173229 -0.0776951387525  -0.0989535748959 -0.0518730916083 -0.08125374466180001  -0.0433920919895 -0.09785594791170001 0.0106235472485  -0.0488061010838 0.0295096840709 -0.0131453983486  -0.25 0.25 0.5  -0.166666666667 0.25 0.5  -0.25 0.195066730511 0.445658150344  -0.19506166517 0.25 0.445542865294  -0.0213422998786 -0.126349791884 -0.045622177422  -0.117952652276 0.0158270020038 -0.16616243124  -0.0531469397247 0.0490713231266 -0.13630309701  0.0358348339796 -0.131537660956 -0.134171053767  0.0583617314696 -0.115307979286 -0.0462360456586  0.010585160926 -0.0606908276677 0.314250290394  0.078067921102 -0.133790805936 0.331458956003  0.0206208750606 -0.104583717883 0.36723652482  0.0300164371729 -0.13569638133 0.270959883928  0.0797956883907 -0.07311873137949999 0.388136893511  0.0291880238801 -0.0850581228733 0.220644980669  0.0788302049041 -0.07555303722620001 0.284453928471  -0.0465739220381 -0.108428947628 0.305151432753  -0.056692365557 -0.0812899768353 0.234353885055  0.10282895714 0.0630551427603 -0.0452189296484  0.178613707423 0.153893724084 -0.0703043565154  0.0750898644328 0.130835875869 -0.116260357201  0.0179002508521 -0.0400723591447 0.396018892527  0.07961820065980001 -0.020668130368 0.232235535979  -0.00726175494492 -0.022667773068 0.242156982422  0.0524490773678 0.0171752162278 0.310696065426  0.0103002395481 0.0813155695796 0.107229083776  0.00225681974553 -0.008687185123560001 0.0457225777209  0.177950121638 0.25 0.0405701099774  0.151375159621 0.202163234353 -0.00268407491967  0.13042794168 0.172564610839 0.0599601529539  0.184557154775 0.16295710206 -0.00737970136106  0.0827306732535 0.011830884032 0.0299163535237  0.106673434377 0.0676268041134 0.0663062110543  0.25 0.25 0  0.25 0.177947182503 0.0435581305687  0.0251978598535 -0.0201241951436 -0.0233656335622  -0.25 -0.25 0.25  -0.175495340629 -0.25 0.295351832328  -0.25 -0.175776260788 0.294629825204  -0.164853364229 -0.189889326692 0.246240898967  0.111295968676 0.25 -0.00354384794953  0.0417815256417 0.25 0.0264120515999  0.0577150444892 0.25 -0.0418173710713  0.035034801811 0.196921139956 -0.0497792549431  -0.115254960954 0.0352221727371 -0.0357825122774  0.0360979661345 0.0743419006467 -0.130612716079  0.08110298216340001 0.0143552683294 -0.135737240314  0.0281950440258 0.110801942647 -0.38559025526  -0.000352636008756 0.154027625918 -0.45018479228  0.0220217909664 0.07910815626379999 -0.445265561342  -0.041934799403 0.09297795593740001 -0.440330862999  -0.115356497467 0.128115877509 0.0303980205208  -0.08144567906859999 0.192924261093 -0.0396481454372  -0.0503155887127 -0.140062868595 0.370642662048  0.0181560348719 -0.191118896008 0.319997102022  -0.09442232549189999 -0.0766885429621 0.347179293633  -0.10306725651 -0.0245223585516 0.261891931295  -0.0371639840305 -0.192689821124 0.258922994137  -0.08778057992460001 -0.193450272083 0.293951839209  -0.116932563484 -0.137108251452 0.278956532478  -0.0434515699744 -0.19969072938 0.340430229902  -0.016621209681 -0.143479332328 0.208528921008  -0.0799133181572 -0.177766740322 0.206858798862  -0.0340202823281 -0.07231882214550001 0.405357718468  -0.153045728803 -0.0703692808747 0.28540495038  -0.0647673308849 -0.069349065423 -0.297796696424  -0.0468406006694 -0.118580199778 -0.331259429455  -0.0636249184608 -0.122360698879 -0.235275790095  -0.137311711907 -0.115820750594 -0.279358655214  -0.25 -0.25 0.333333333333  -0.00222280388698 -0.0275516584516 -0.327156513929  0.0233143884689 -0.124395690858 -0.330935031176  -0.00544846989214 -0.0444226972759 -0.392852008343  -0.07202984392639999 -0.0450558848679 -0.379192590714  -0.128861442208 -0.0482712239027 -0.325591087341  -0.0319190612757 0.25 0.27473160228  0.0259018652141 0.196524605155 0.343851953745  -0.0424101948738 0.196461260319 0.324036180973  -0.08801463991400001 0.193724930286 0.280150324106  -0.051391992718 0.129726842046 0.244459152222  0.0793330296874 0.131078347564 0.273738384247  0.0304427426308 0.197590425611 0.258007407188  0.139736711979 -0.103549621999 0.308288753033  0.117407329381 -0.00031748006586 0.284001767635  0.17845864594 0.0137020656839 0.2717012465  0.133446916938 -0.07468281686309999 0.252671837807  0.193237304688 0.0103836003691 0.32706490159  0.108656100929 -0.016409387812 0.370573759079  0.195593327284 -0.0705924406648 0.374003827572  0.204297035933 -0.0882691517472 0.283604085445  0.15987212956 -0.0232784096152 0.211559042335  0.103109702468 -0.0715631917119 0.185957938433  0.25 -0.177950121638 0.0405701099774  0.25 -0.111295968676 -0.00354384794953  0.168315500021 -0.181550845504 -0.0129796266556  0.203061833978 -0.0839376300573 0.0201103240252  -0.123973377049 0.0421161539853 0.0831994190812  0.10652089864 0.041568480432 0.133020982146  -0.00508088478819 0.00464248098433 0.118765294552  0.0384838804603 0.0542355030775 0.219570666552  0.0556482039392 0.09942726045850001 0.165778696537  0.25 -0.25 0  0.25 -0.17904445884 -0.0421267671166  0.0085972994566 0.139411628246 0.206887423992  -0.0427397117019 0.0734880268574 0.199836358428  0.25 -0.25 0.166666666667  0.177338154858 -0.25 0.209433902167  0.178222204231 -0.25 0.126578397361  0.180748909712 -0.154124230146 0.180074676871  0.118582360446 0.0498475395143 0.233844980597  0.113276541233 0.115120351315 0.208414897323  0.068451166153 0.123325429857 0.09300038218499999  0.08695217221980001 0.18308262527 0.11987875402  0.1366494596 0.0978636816144 0.125807240605  0.0170362386853 0.165571182966 0.116205818951  -0.075325883925 -0.13042730093 -0.120773427188  -0.191016584635 -0.1764793396 -0.0778442546725  -0.102759346366 -0.20253264904 -0.07015967369080001  -0.126150563359 -0.115044787526 -0.0573479756713  -0.138729035854 -0.104583211243 -0.134180948138  -0.147993162274 -0.138949289918 -0.203295826912  -0.180331096053 -0.192031860352 -0.160557568073  -0.194399222732 -0.0846866071224 -0.148938387632  -0.11259970814 -0.078034222126 -0.193649172783  0.0326924659312 -0.122268341482 0.0296003930271  0.0215157996863 -0.180560961366 -0.0757267251611  0.0956164896488 -0.0493310950696 -0.0164182558656  0.112129375339 -0.112067811191 -0.105549775064  0.127802968025 -0.106147237122 -0.0110959038138  -0.0854129120708 -0.015297700651 0.056893799454  -0.0204317308962 -0.0795602425933 0.117458000779  -0.178222204231 0.25 0.126578397361  -0.177947182503 0.25 0.0435581305687  -0.107976816083 0.25 0.0905854563709  -0.157577678561 0.178241759539 0.0969507619739  0.25 -0.25 0.333333333333  0.25 -0.25 0.25  0.175776260788 -0.25 0.294629825204  0.25 -0.175495340629 0.295351832328  0.0932372882962 -0.0430554822087 0.0724518448114  -0.044769000262 -0.00661279587075 0.403999477625  -0.194478780031 -0.0247275307775 0.332954645157  -0.173761367798 -0.0806607827544 0.396263659  -0.137637495995 0.00523930834606 0.315887242556  0.0864742994308 -0.139340251684 0.176064118743  0.105438224971 -0.136641919613 0.253711819649  0.0308670303835 -0.25 -0.136809572586  0.0367561832589 -0.25 -0.219583441074  0.0925811678171 -0.20055809617 -0.19996842742  0.0127155454829 -0.193433105946 -0.225977659225  0.0415658205748 -0.200880005956 0.196522325277  0.0373581312597 -0.119548290968 0.120048768818  -0.0954102815882 -0.25 0.346414074494  -0.101368582479 -0.25 0.251933327382  -0.0374909392175 -0.25 0.286229296012  0.0852289572358 0.109103307128 -0.27055695653  0.07707493752239999 0.127253636718 -0.199824258685  0.128097131848 0.07648140937090001 -0.209757223725  0.154867321253 0.13628205657 -0.212952241302  0.08678253740069999 0.189277544618 -0.274375885725  0.127699971199 0.0803090333939 -0.326344817877  0.0577741526067 0.0601542405784 -0.31936660409  0.0525139421225 0.129102528095 -0.326874881983  0.0251371748745 0.175572559237 -0.261228203773  0.0199144631624 0.0927290171385 -0.265960127115  -0.148952946067 -0.121583275497 -0.374568909407  -0.25 0.177950121638 0.0405701099774  -0.25 0.111295968676 -0.00354384794953  -0.175531774759 0.135734900832 0.0562076568604  -0.178730383515 0.191659659147 -0.00562386959791  -0.0244714934379 -0.108516678214 -0.387223660946  -0.09279609471560001 -0.170035287738 -0.445968538523  -0.0281062982976 -0.0
[...]
<PointData  Vectors="f_78"> 
<DataArray  type="Float64"  Name="f_78"  NumberOfComponents="3" format="ascii">8.0712087684707093e-06 -2.2191810093801470e-06 -4.5091124485586781e-03  -1.9606347807321417e-06 5.5219853148425781e-06 -4.2283929403261851e-03  -9.0252388085980279e-06 -2.6573782400382175e-05 -4.0471079567182527e-03  -2.9457001326706710e-06 -1.1038149097393921e-06 -3.6737896219676595e-03  4.7182245838953311e-07 -1.7451007795606808e-05 -4.4675208986383235e-03  8.4745995927652599e-06 4.7688818504003265e-05 -3.8777302149387315e-03  -3.5447358095646990e-06 1.6371159980379709e-05 -4.3770096290697532e-03  3.0473202824464029e-05 1.4261235810851121e-05 -3.9943510842988571e-03  -1.7103699910806412e-06 -1.3903538434538634e-05 -4.2653837303153535e-03  -3.0686047316288153e-05 5.2979955799231240e-05 -3.6194368017784667e-03  -3.2817661951446596e-06 1.3951830526732564e-05 -4.3644679895769251e-03  -8.0863025125616173e-07 6.9177354662230945e-06 -4.3554824012640835e-03  5.8852807918929825e-06 1.0785366484357756e-05 -4.3011432012165325e-03  -5.7656742336829514e-06 1.5034528760634453e-05 -4.4223588077666742e-03  1.9544791117613660e-05 1.9208754575049596e-05 -3.7521213357378067e-03  9.7817970484976678e-06 8.9917882859486021e-06 -4.0292417475679557e-03  1.9463560004884502e-05 -2.1400549958049273e-05 -3.6455985042752829e-03  2.7828586644627655e-06 9.9172097771936460e-06 -4.2097121132057070e-03  6.3507237972140951e-06 -9.5584161056758104e-06 -4.1996945378693961e-03  1.0408282979072522e-04 -1.6906730304288889e-04 -4.3391959449024667e-03  -1.8915498997780570e-04 -2.1901484189991333e-05 -4.6070272651853386e-03  -6.1739718713250846e-05 3.8064270285808770e-05 -4.1709567968656949e-03  -8.7633245908970818e-05 -2.1437300180926070e-05 -4.3325097216142883e-03  2.7836397975682705e-05 8.5567025953103777e-05 -4.4489014535357401e-03  7.0680943888095309e-05 7.7084035015494365e-05 -4.5579899371400558e-03  8.7155083516045030e-06 7.3805529198410911e-05 -4.3847647432316240e-03  1.6086837045679560e-04 7.4431069384816556e-05 -4.0711841543462513e-03  2.9891457007492249e-06 1.1391624829946432e-04 -4.0968674158859599e-03  -3.1228066386006758e-05 1.1783764646431818e-04 -4.4073162868819207e-03  -2.6940216053999997e-05 6.6338485792083752e-05 -4.5692402472196159e-03  4.8624039307386475e-05 5.3899477904293531e-05 -3.9549320101639413e-03  -1.2344147131096859e-04 1.1538496872133025e-04 -3.9168486251214213e-03  -9.1478067055495924e-07 6.7278894681639846e-06 -4.3717632865145238e-03  -1.0327600386443641e-05 9.8317389542528968e-06 -4.2849874142685176e-03  -1.2546413551667798e-05 -2.9416730895174781e-06 -4.2998349932939980e-03  4.3459736926372731e-06 1.0890710354564290e-05 -4.2105552455128717e-03  -3.0848968550410875e-06 2.2157146783750300e-05 -4.3097498423778262e-03  4.8595707190145150e-06 -1.6702395800953178e-06 2.3990426068226743e-05  7.2832609293325835e-06 -1.2214960034472276e-05 3.4315165996819389e-06  9.0716967955517219e-06 2.0033838265126253e-06 1.0533253248217711e-05  3.2124529110835930e-07 3.9401136142509966e-07 5.0591366183227636e-06  -2.1330108705733411e-05 4.1019955028403448e-05 -4.0575540428837761e-03  3.4592328133200401e-06 2.0576077767425275e-05 -4.3251308269495504e-03  3.5720590971934452e-06 1.4034644546006496e-05 -4.5701259586238743e-03  -9.2964149913494090e-06 -3.2392031809089289e-05 -4.0897531580210500e-03  -9.6874837644394847e-06 -1.4824470392466161e-05 -3.9214144724968314e-03  2.7732921794654992e-05 8.0272027263426411e-07 -4.2075751889803607e-03  -5.9144954297869678e-05 -2.8143799031951951e-06 -4.3633200231568492e-03  -1.2395838125491321e-04 -8.5576395426335402e-05 -4.6708174416502865e-03  1.2076376256422463e-05 2.5281900407183391e-05 -3.8256944575144197e-03  1.3698406578935838e-04 -1.9309711483955278e-04 -4.1013031411015043e-03  1.4325110169707395e-05 -6.5020787325461646e-06 -4.2378774684097859e-03  6.6110888238010503e-05 -4.2465794819139432e-06 -4.0315841858515238e-03  -6.1829903557302946e-05 -7.9114938898136255e-05 -3.6381246976430141e-03  -1.4297033283050992e-06 1.5531632456710915e-05 -4.1348169346270940e-03  -2.0067293383331910e-05 4.9511792922497824e-06 -4.1319294378472518e-03  -2.0449464552488589e-06 5.6022700413708030e-05 -3.1795134559525085e-03  -4.6409979241898360e-06 1.0447586769861147e-05 -4.0811813609349223e-03  -3.2237793790787241e-05 -2.1265802914341930e-05 -4.5250517541425327e-03  -1.0474611711544013e-05 -6.5120987497286147e-06 -4.3634652462634250e-03  -5.6269180962086944e-06 6.0303682747489387e-06 -4.2863254536836207e-03  6.6108810261283915e-05 2.5325948007279803e-05 -4.1056713099877117e-03  1.0713979829626329e-05 1.0799991062827995e-05 -4.2414882803400401e-03  -1.8823319714168563e-06 4.7061651485857124e-06 -4.4638054935390468e-03  -6.4261465118072868e-06 3.6316090800178906e-06 -5.4583499525997392e-07  2.6443900972771633e-05 7.7747232523460731e-05 -4.0651985358071000e-03  2.3853285304679065e-05 -1.6360786165022783e-04 -3.4926214953372500e-03  -4.2297094498658781e-05 9.0300164475647077e-05 -3.4176805720465549e-03  -1.1420783870144273e-05 1.8491524332200423e-05 -4.2830608901543339e-03  -2.8102077769940257e-05 -3.7382861288002851e-06 -4.0371844882970999e-03  -8.8752607197467839e-06 -7.9848284154591660e-06 -1.3151409155254421e-06  7.3742321743127014e-06 -1.4954933752379869e-06 -4.0804880342419230e-07  8.5440294317390231e-06 8.7058926984446901e-06 -4.5507076631203505e-03  5.3710667978125103e-06 6.6989620513399036e-06 -4.3227573043523721e-06  1.2913404743561959e-06 -3.0212895321304032e-06 3.6431665127511511e-06  -6.0430529647843515e-06 8.8984510218903463e-07 5.2316239512247451e-06  -5.8827629985501860e-05 -1.7581282630237742e-04 -2.9496597529252702e-03  -1.2206524637206290e-06 -6.4356378289496546e-07 1.4929154196383542e-06  -1.1026705636540595e-06 -2.8855499031217220e-06 9.0614127518485971e-08  -9.4831947783248465e-07 3.3929809240582651e-06 1.3294579739194471e-06  -5.1294455996302940e-05 6.1923668845250584e-05 -3.7263444798539234e-03  -5.6733461744502219e-05 -2.3762036545850294e-05 -4.0329403481022003e-03  7.1596790604396805e-06 -1.6445124384595849e-06 -4.5597247011534437e-03  2.7728123849716127e-05 -7.2864561790043910e-06 -4.0193417986939921e-03  -4.5377846639983926e-06 -2.9350541317004468e-05 -3.8708668137489100e-03  -2.3567719931138054e-05 -1.8780397861367010e-05 -3.2516699922043152e-03  1.5530529956781355e-05 -1.1001351022165853e-05 -4.2283691845902832e-03  1.2789820416187584e-05 -5.3603373676292764e-05 -4.3471018584029641e-03  -7.4136516693943405e-05 -5.1563230658694592e-05 -4.4402745628196860e-03  -1.8025411540367236e-05 -1.2468976391595091e-04 -3.2909843822729306e-03  1.1219986765465262e-04 -1.3581893876905566e-04 -4.0264023257120573e-03  -1.5773143722181704e-05 2.6010861752736773e-05 -3.5538619589613250e-03  -1.4612964856751563e-04 -8.4036173510955176e-06 -4.0872608291036032e-03  2.1450260846794918e-05 -4.9396078667377157e-05 -4.0848640937189290e-03  -3.3157258346050805e-05 6.5637366186454771e-05 -3.7422643227165496e-03  -2.6814332940714645e-05 -1.2910149567963973e-04 -2.9613941027406753e-03  3.6932328219462817e-05 -3.4849089929172932e-05 -4.2665024313732654e-03  1.5875371296362624e-04 7.7931958401553713e-05 -3.8384245177717417e-03  2.1144937290519778e-05 -2.9712973801256726e-06 -4.0567450507951715e-03  1.0497605961587245e-05 1.0679776723599154e-04 -3.6887781695254078e-03  -1.4324881852742838e-04 9.5466180116403004e-05 -4.2898797469261849e-03  7.4181247087724555e-06 -1.0126873353483238e-05 -2.8267554440218187e-03  3.5366494209411472e-05 1.4432131296940442e-05 -3.8742890030959614e-03  2.4699376960286667e-05 2.0863627639436355e-05 -4.4096062820684102e-03  -1.1789986379488424e-06 -5.8176386915822105e-06 -3.6394409713379466e-03  -2.8259737014007507e-05 6.1404762166602648e-06 -3.4503926747388599e-03  4.9915656427744645e-06 3.4450097032461010e-06 -1.6850567979540251e-06  1.9295257573925470e-05 1.3596375948610342e-05 -4.2539842129704413e-03  1.3149348992873392e-05 1.9876653369248821e-05 -4.5766500501512319e-03  1.2402059910675036e-05 2.9021053996034293e-05 -4.3874897661381083e-03  1.7127572587125145e-05 2.2133253151111354e-05 -4.3247659186776075e-03  2.7328890316442427e-05 1.1125991369900389e-05 -2.8419270701011768e-03  1.7589812443646214e-06 -2.4132716980780802e-07 7.1700239655412417e-07  6.7299362631208042e-05 6.1659896910467622e-05 -3.9545679633689159e-03  -2.5260968941502078e-04 -1.6700892549139977e-05 -3.7208083714171626e-03  2.4948360104135888e-04 -1.6257882322057992e-04 -3.7906911694851634e-03  -5.0663867887251011e-05 2.3873732688430536e-05 -4.5575654703485634e-03  7.7539494132822771e-06 3.5194067539132810e-05 -3.6613824742229048e-03  1.4054129150173128e-05 -2.6017829815559066e-05 -4.3234368858564151e-03  -4.7185972784955283e-06 -1.1000532170221057e-05 -4.2224166442418965e-03  -2.3423112258193188e-06 2.0915306000710057e-05 -4.0562606313112384e-03  1.3884238079621928e-05 -3.8656070400695416e-05 -2.8258335509608423e-03  -2.4629461714811491e-06 9.9419474649737159e-06 -3.7234559885346266e-03  -1.1678731509982414e-04 -3.5289251827258055e-05 -3.2686441017550074e-03  6.8812086084020356e-05 5.4745106970285262e-05 -4.4816019820131748e-03  1.8617157832439771e-04 3.4175791966080922e-05 -4.0820018925062165e-03  7.4248647007817831e-05 7.7896688682395759e-06 -4.0872182615080931e-03  -7.0514552551023284e-05 1.5672183857951960e-05 -3.8926102549223015e-03  -3.4871131095711124e-06 -3.1623577500815301e-05 -3.2599338451232067e-03  8.3876395266247329e-06 1.4046905530198479e-07 -1.3224311606092276e-06  -1.8492422189479007e-06 -3.6693724717413806e-06 1.8713690885221828e-06  -1.7251324313440102e-04 9.1460612364374874e-05 -3.8744758759146503e-03  7.4618347341051981e-05 -1.1375694140666978e-04 -2.9850233941490787e-03  3.8698021957758665e-05 2.5510175420747140e-05 -4.3364018994852885e-03  4.7550521213947477e-06 1.4030452759351076e-06 -3.9189551853525311e-03  4.1812328173398108e-06 3.8021264396514999e-06 -4.3300580691555107e-03  -9.9260367964018727e-06 1.5951474330966832e-05 -4.4248853684726464e-03  7.0155982027474967e-06 -2.9649819600452340e-05 -4.0269784089697865e-03  -5.6476519973097146e-06 2.5957888169900797e-06 4.8400592380248784e-06  5.0485343255423763e-06 2.1166514664622580e-06 5.6512413910798389e-07  -5.0485069402429647e-05 1.7956759616857583e-05 -3.7897193996563844e-03  1.8530012673762258e-05 3.2403640767969874e-05 -4.0848347251502505e-03  5.2664461616996195e-07 3.5680361682846356e-06 4.0394274700396307e-06  9.4927978425032386e-07 -1.1575971131947208e-05 2.5286371522729220e-06  -2.5977163165075807e-06 -7.5641898345800597e-06 -4.5740789041040720e-07  -6.8546994523812483e-05 6.8045369100756093e-05 -3.3884300446883637e-03  1.1584246430993043e-05 2.3093567344624907e-05 -4.1428574287633996e-03  1.0965276480894019e-05 -6.3773868103797693e-06 -3.6101644647751137e-03  -4.1622920874863515e-05 1.5180075601928791e-05 -4.2672646526171545e-03  -1.2019638706384937e-05 -6.4791774355002304e-05 -4.1042688604243129e-03  2.7058670407908396e-06 -5.1705062062546353e-05 -3.1311388798005244e-03  4.4515929567129966e-05 -3.4969687918511784e-05 -2.9543213373214128e-03  -1.2228202019092861e-05 3.8205062627308583e-05 -3.9051598402988883e-03  -9.8041804698451298e-05 -1.2050112338249499e-04 -3.6165777819707357e-03  4.4398382198489590e-05 -3.0299830383674412e-05 -3.5830480507399185e-03  -2.8014590552505995e-05 8.8284643986809460e-06 -3.7120007020086921e-03  2.1268114172448565e-05 2.0261703082075844e-05 -2.9587334000069324e-03  4.9484214177220571e-05 -1.3111675254294639e-05 -3.7570597978445245e-03  5.5119076909235604e-05 -1.7183380486597180e-05 -3.4716532276697540e-03  1.4345961213361872e-04 1.4161987303904676e-04 -4.1687074266701469e-03  4.4644039449289987e-05 3.3076964838863846e-06 -3.8583653208386038e-03  -1.4927997952661534e-05 -2.0487918441042185e-05 -4.1320270167001377e-03  -7.0819734394956740e-05 5.9690832335577793e-05 -3.1244918665844835e-03  6.7091940162840817e-06 -1.4819000264635087e-05 -3.9903582486632153e-03  6.9898879029284177e-06 -2.3173627567006445e-05 -3.6812658738976131e-03  1.9843367124463245e-05 -8.5725255817214231e-06 -4.3254140262665233e-03  2.8270971060730441e-05 -1.6842508432320255e-05 -4.1329590587782673e-03  -5.2204146862222108e-06 7.8801798661780268e-07 -4.3784214687539146e-03  1.6199063278383974e-06 7.4031287965349803e-06 -2.1459887889819245e-06  1.6337664872044594e-06 7.1312786999115867e-06 2.1840056150698166e-08  2.4901538608338140e-06 -8.9812982964425015e-06 1.3533539353463069e-07  -1.0927848159125268e-05 5.8175165026389463e-06 -3.0236268852799567e-03  -2.1038073369886924e-06 2.0802877671788180e-06 2.4324634292564494e-07  -9.4783609899333477e-06 8.9507079078116351e-06 1.4359245195396648e-06  -9.5050428681037022e-07 -9.4018105560358110e-06 2.3352068853479798e-06  8.0663595189432503e-06 1.9092092241815296e-06 2.3292058936185583e-07  -1.7532291375096499e-05 1.1352848962740870e-05 -3.9942103822613951e-03  -8.8346292218302254e-06 6.3705184772723652e-05 -4.4889359312925755e-03  1.5149287305419841e-04 -1.4888793385486833e-04 -3.3043634794961262e-03  -2.6828584057628463e-04 -4.7105570982195638e-05 -3.7543263922192173e-03  5.1930157862056901e-05 -2.7258878722748871e-05 -3.1111530110061927e-03  8.1199267745343630e-05 8.0533973731996032e-05 -3.0935580967380158e-03  -1.4638658910654709e-05 -8.7328585496474818e-05 -3.8308183093576833e-03  4.5191166431689459e-07 5.5620950247414270e-07 6.2300367806529206e-07  1.8749356485877923e-06 7.3020770696149303e-06 -1.5159747588346842e-07  8.4323378721961302e-05 -3.0156087648755516e-05 -3.6526390357337641e-03  -5.9439542637174606e-05 1.3025278797062451e-04 -1.5997140099683789e-03  -2.2969279059531085e-05 -2.0491515105011004e-05 -4.3546538893114517e-03  4.5561126563656762e-07 3.7814551415191286e-05 -4.0856120529313353e-03  2.8028053011762083e-07 2.8610027880902990e-06 2.9265942046553221e-06  -3.2144569773729079e-06 -1.6741894441331727e-06 5.0939244087401578e-06  -3.4166103572178774e-06 -4.7264617670861399e-07 8.2940121543973749e-07  4.5283233654117837e-05 -3.7216512671324746e-07 -3.6875531125043250e-03  -1.3008956567660985e-05 -4.9069889365224160e-05 -3.7541844861543089e-03  1.5053710934638031e-05 -1.0792202884030003e-05 -3.8805431524235124e-03  -7.0771662824629264e-06 1.0420913375825686e-05 -3.0365335087877360e-03  6.4468003135941722e-05 -1.3538737652620384e-06 -3.0037981488386712e-03  -8.0423232067887306e-06 1.6167694824313011e-05 -4.7421791300689010e-03  7.6971870397931564e-06 6.6381136654510009e-06 -4.3324901763198715e-03  -2.7669914144777345e-06 -8.6615752359596793e-06 -3.6021601942061564e-03  -6.6808292912850768e-05 -3.3759854358191710e-05 -3.1407148390852715e-03  -5.3804115962900735e-06 7.4797123787885177e-06 -4.4954219736390785e-03  1.6001944691590242e-05 -5.0875821121437334e-05 -3.7125375263504651e-03  -4.0177300399773827e-06 -3.4234416639039283e-06 4.3832429583440214e-07  -1.4111925177101207e-06 5.2202234992450238e-07 7.4850290500497882e-07  2.4093092730544284e-04 -1.6322231020830886e-04 -3.3387504847849372e-03  -1.6554155359071348e-04 6.1099208201650059e-05 -3.4756016929554730e-03  -1.7885802985670760e-05 4.8483762877705651e-05 -3.8321433095232270e-03  -3.9476859943146406e-07 6.1253389068509240e-05 -4.0908703099380899e-03  9.2355727109204246e-06 4.9805173063790907e-05 -4.4477404047259805e-03  7.1472339482595790e-06 -1.0467338042398723e-05 -1.9545578219138792e-06  -1.2834128385236691e-05 2.4997511391001766e-07 4.2929437344966650e-06  -1.2794211185360652e-05 -5.9570904140591416e-05 -4.1055361129336684e-03  7.5339511773846627e-05 7.5040013879465904e-06 -3.0747693565949604e-03  -2.6038108585598941e-05 -4.8469825348899156e-06 -3.3441913105774134e-03  -5.3229174856928817e-05 5.0123807677921466e-05 -4.4389917767316744e-03  9.1148254349957161e-06 2.7837517883981025e-06 -4.2823529940473962e-03  1.3476947708859483e-06 8.6692933817922701e-07 -5.3543355081300773e-06  1.9021675363427219e-07 6.1707389694564818e-07 -3.4276004627643771e-06  5.4564991184487324e-07 -1.7846892537092024e-06 7.9191614217977554e-07  1.3537077569022029e-05 5.8855086527620021e-05 -3.8747416695049238e-03  1.2014450607674496e-05 4.7674594697744786e-06 -4.0762817384462679e-03  4.0131373494255930e-06 1.1273528426430267e-05 -4.3724540447800135e-03  -1.6629764472154718e-06 8.3314482041112666e-06 -3.6432633941727351e-03  2.8641623981708784e-05 4.4392790626770094e-06 -4.5196802057485778e-03  -3.1993995496726621e-05 -1.7809673021852396e-05 -4.3082018937686652e-03  2.6280384941251899e-06 -1.0409582412290622e-06 -4.0211952516759665e-03  2.3158580172755989e-06 -5.1068462244154628e-06 -3.0937029958916430e-07  -3.7410961673141309e-06 1.1946818404009013e-06 5.7478753403460106e-07  -1.3692436839588456e-04 -5.6629827192094030e-06 -3.6713677860410370e-03  2.7884493730349728e-05 6.5403149491180011e-05 -3.3256748682518461e-03  3.7902856589443369e-05 -2.3450796002068388e-05 -3.2641206661864187e-03  3.7638924340756878e-05 -2.0747421175410659e-05 -3.9795504645081976e-03  -1.6030430130588008e-05 -1.0306864479229313e-05 -4.2068831410176435e-03  -7.5262975431643078e-06 -3.8532797184850409e-05 -3.4599011635275709e-03  2.8492867757079755e-05 -6.2798860380533218e-06 -4.1810545587066339e-03  -5.4817547144551888e-05 5.6580963620698667e-05 -2.9172444576401738e-03  -8.7147485606717406e-05 4.3857161298581273e-05 -3.2832624818390321e-03  3.2462812293304148e-05 4.4714976502663349e-07 -4.2677319052226107e-03  6.8738404326906840e-05 2.7051297632418808e-05 -4.7020201797720595e-03  4.2353788652824747e-05 -1.6346522633469667e-06 -3.9547872158207636e-03  2.2311018296436755e-06 9.6036273208272656e-06 -4.1850423204188988e-03  2.9830337898171615e-05 -2.7964173899966383e-05 -4.3860255598297043e-03  1.9157093392545060e-05 -4.8653884462575394e-05 -4.4232091095855021e-03  1.3421193419187221e-05 -1.7698820610580084e-06 -4.3993001525583376e-03  2.4255665843604598e-05 1.3521330251809171e-05 -3.5016231290047597e-03  -1.9504324712502690e-05 1.7183427563066042e-05 -3.9124459408759766e-03  1.7677158267767802e-05 -6.0897652917931355e-06 -2.9096937516482385e-03  2.5517726675073599e-05 1.9775470078318281e-05 -3.6028677925612432e-03  6.8287168580771006e-06 -5.7360300356045346e-05 -4.2635805370407238e-03  -6.4604049128780546e-05 -8.7529697227320633e-05 -4.2339823285143744e-03  -3.6671066594201360e-05 4.0211344113472517e-05 -4.9889756959815203e-03  -4.8091886851531669e-05 5.1372424570994927e-05 -2.6978863399702529e-03  5.6504041338945735e-05 -3.0496146321531417e-05 -4.5852274111743046e-03  -1.2793814227972405e-05 -1.0191783318986262e-04 -2.3779711814253444e-03  4.5445687602607796e-05 -3.7425038137878843e-07 -3.8545450189633522e-03  -1.7326173198942682e-05 8.5562270336980156e-05 -3.0477169107748950e-03  5.0586129206145654e-05 -1.8769557687402499e-04 -4.7312813117575585e-03  4.4217009200778147e-05 2.9808125627500081e-05 -3.4584015370107443e-03  -2.0718875602328699e-04 -3.4857000524088248e-05 -4.0381277651851460e-03  -1.2809508748463252e-04 9.4311308005069961e-05 -3.9193817743271879e-03  3.6670313580182170e-06 9.9226104535508859e-06 9.9935851296601225e-07  -8.6134474012537337e-07 -1.2918875125283943e-05 -4.8756491559680247e-07  -5.2891403781262736e-06 6.5875126763834855e-06 3.4236098577950280e-07  4.8278704650630218e-05 -4.5927496397658692e-05 -3.6853700448354031e-03  -9.3672627783020874e-05 -8.2014828783286592e-05 -4.0329054450955991e-03  6.1921850668952656e-05 1.4791009901149376e-04 -4.3497984294801487e-03  -1.1317876394716774e-04 -2.1402260868099666e-04 -3.9379076616309055e-03  -1.3909491261621638e-04 1.0492355149609955e-04 -4.3664967934833434e-03  -2.8897854789675367e-05 -1.4925271838577190e-05 -4.3144974350971177e-03  1.0691730163197270e-04 3.8711736503797019e-05 -4.0087626863786500e-03  3.9986781910396091e-04 -5.0176708885667454e-05 -3.4128043736144811e-03  3.4228821172572864e-05 9.4551888286950103e-06 -4.1019140661922226e-03  1.6544368102684846e-06 5.0826593948656384e-06 -5.1747116997152981e-06  -1.7551894319588794e-07 3.4437625096436119e-06 -5.1856938462533163e-06  2.2893600825754393e-05 1.5703727281402694e-04 -4.5890472002645304e-03  5.8136941510881545e-06 -3.0518377728858651e-06 -3.4883913680064298e-06  -6.