<?xml version="1.0"?>
<VTKFile type="UnstructuredGrid"  version="0.1"  >
<UnstructuredGrid>
<Piece  NumberOfPoints="857" NumberOfCells="3763">
<Points>
<DataArray  type="Float64"  NumberOfComponents="3"  format="ascii">-0.0182597916573 0.126128911972 -0.119588643312  -0.0077641364187 0.0512270443141 -0.07050477713349999  -0.0237180162221 0.16240182519 -0.053058128804  -0.107877351344 0.105669431388 -0.0502408407629  -0.0444478429854 0.116080775857 -0.00235075876117  0.0393674038351 0.112876079977 -0.0491501875222  0.0248903874308 0.0489483103156 0.000152088920004  0.0314915925264 0.114928804338 0.0218031276017  -0.0657326281071 0.0685198307037 0.0497140102088  -0.0355357266963 0.164656624198 0.0508319064975  -0.010538729839 -0.0422629192472 -0.208358153701  -0.0239527057856 0.0135364839807 -0.242119863629  -0.0194642152637 -0.0775559768081 -0.263431429863  -0.08492307364939999 -0.0108216870576 -0.280446648598  -0.08293507993220001 -0.0361198186874 -0.159778758883  -0.0240796487778 -0.0824203491211 -0.148982465267  0.0430508553982 -0.121076337993 -0.234084427357  0.0307756774127 0.0324950888753 -0.198437720537  0.00352357281372 -0.00433266581967 -0.144715368748  -0.0456651262939 0.08372022956609999 0.342343091965  -0.116630032659 0.0117083769292 0.386158525944  -0.08223126828669999 0.0577075146139 0.289406776428  -0.0511222109199 0.00205342215486 0.300772219896  -0.0125984866172 0.0267426930368 0.351842552423  0.0303636882454 0.0561947338283 0.391145974398  -0.0524924062192 0.0543583929539 0.40361738205  -0.07944945245979999 0.130002260208 0.441037595272  -0.000730989675503 0.119443200529 0.385622620583  -0.078488714993 0.137875169516 0.332541137934  0.0142801422626 0.110509291291 0.27100610733  0.0224165506661 0.08303219079970001 0.331783413887  -0.0170432701707 0.161798536777 0.30022162199  0.000811119796708 -0.0515509881079 -0.08419398218390001  0.0888616070151 -0.015075173229 -0.0776951387525  -0.0989535748959 -0.0518730916083 -0.08125374466180001  -0.0433920919895 -0.09785594791170001 0.0106235472485  -0.0488061010838 0.0295096840709 -0.0131453983486  -0.25 0.25 0.5  -0.166666666667 0.25 0.5  -0.25 0.195066730511 0.445658150344  -0.19506166517 0.25 0.445542865294  -0.0213422998786 -0.126349791884 -0.045622177422  -0.117952652276 0.0158270020038 -0.16616243124  -0.0531469397247 0.0490713231266 -0.13630309701  0.0358348339796 -0.131537660956 -0.134171053767  0.0583617314696 -0.115307979286 -0.0462360456586  0.010585160926 -0.0606908276677 0.314250290394  0.078067921102 -0.133790805936 0.331458956003  0.0206208750606 -0.104583717883 0.36723652482  0.0300164371729 -0.13569638133 0.270959883928  0.0797956883907 -0.07311873137949999 0.388136893511  0.0291880238801 -0.0850581228733 0.220644980669  0.0788302049041 -0.07555303722620001 0.284453928471  -0.0465739220381 -0.108428947628 0.305151432753  -0.056692365557 -0.0812899768353 0.234353885055  0.10282895714 0.0630551427603 -0.0452189296484  0.178613707423 0.153893724084 -0.0703043565154  0.0750898644328 0.130835875869 -0.116260357201  0.0179002508521 -0.0400723591447 0.396018892527  0.07961820065980001 -0.020668130368 0.232235535979  -0.00726175494492 -0.022667773068 0.242156982422  0.0524490773678 0.0171752162278 0.310696065426  0.0103002395481 0.0813155695796 0.107229083776  0.00225681974553 -0.008687185123560001 0.0457225777209  0.177950121638 0.25 0.0405701099774  0.151375159621 0.202163234353 -0.00268407491967  0.13042794168 0.172564610839 0.0599601529539  0.184557154775 0.16295710206 -0.00737970136106  0.0827306732535 0.011830884032 0.0299163535237  0.106673434377 0.0676268041134 0.0663062110543  0.25 0.25 0  0.25 0.177947182503 0.0435581305687  0.0251978598535 -0.0201241951436 -0.0233656335622  -0.25 -0.25 0.25  -0.175495340629 -0.25 0.295351832328  -0.25 -0.175776260788 0.294629825204  -0.164853364229 -0.189889326692 0.246240898967  0.111295968676 0.25 -0.00354384794953  0.0417815256417 0.25 0.0264120515999  0.0577150444892 0.25 -0.0418173710713  0.035034801811 0.196921139956 -0.0497792549431  -0.115254960954 0.0352221727371 -0.0357825122774  0.0360979661345 0.0743419006467 -0.130612716079  0.08110298216340001 0.0143552683294 -0.135737240314  0.0281950440258 0.110801942647 -0.38559025526  -0.000352636008756 0.154027625918 -0.45018479228  0.0220217909664 0.07910815626379999 -0.445265561342  -0.041934799403 0.09297795593740001 -0.440330862999  -0.115356497467 0.128115877509 0.0303980205208  -0.08144567906859999 0.192924261093 -0.0396481454372  -0.0503155887127 -0.140062868595 0.370642662048  0.0181560348719 -0.191118896008 0.319997102022  -0.09442232549189999 -0.0766885429621 0.347179293633  -0.10306725651 -0.0245223585516 0.261891931295  -0.0371639840305 -0.192689821124 0.258922994137  -0.08778057992460001 -0.193450272083 0.293951839209  -0.116932563484 -0.137108251452 0.278956532478  -0.0434515699744 -0.19969072938 0.340430229902  -0.016621209681 -0.143479332328 0.208528921008  -0.0799133181572 -0.177766740322 0.206858798862  -0.0340202823281 -0.07231882214550001 0.405357718468  -0.153045728803 -0.0703692808747 0.28540495038  -0.0647673308849 -0.069349065423 -0.297796696424  -0.0468406006694 -0.118580199778 -0.331259429455  -0.0636249184608 -0.122360698879 -0.235275790095  -0.137311711907 -0.115820750594 -0.279358655214  -0.25 -0.25 0.333333333333  -0.00222280388698 -0.0275516584516 -0.327156513929  0.0233143884689 -0.124395690858 -0.330935031176  -0.00544846989214 -0.0444226972759 -0.392852008343  -0.07202984392639999 -0.0450558848679 -0.379192590714  -0.128861442208 -0.0482712239027 -0.325591087341  -0.0319190612757 0.25 0.27473160228  0.0259018652141 0.196524605155 0.343851953745  -0.0424101948738 0.196461260319 0.324036180973  -0.08801463991400001 0.193724930286 0.280150324106  -0.051391992718 0.129726842046 0.244459152222  0.0793330296874 0.131078347564 0.273738384247  0.0304427426308 0.197590425611 0.258007407188  0.139736711979 -0.103549621999 0.308288753033  0.117407329381 -0.00031748006586 0.284001767635  0.17845864594 0.0137020656839 0.2717012465  0.133446916938 -0.07468281686309999 0.252671837807  0.193237304688 0.0103836003691 0.32706490159  0.108656100929 -0.016409387812 0.370573759079  0.195593327284 -0.0705924406648 0.374003827572  0.204297035933 -0.0882691517472 0.283604085445  0.15987212956 -0.0232784096152 0.211559042335  0.103109702468 -0.0715631917119 0.185957938433  0.25 -0.177950121638 0.0405701099774  0.25 -0.111295968676 -0.00354384794953  0.168315500021 -0.181550845504 -0.0129796266556  0.203061833978 -0.0839376300573 0.0201103240252  -0.123973377049 0.0421161539853 0.0831994190812  0.10652089864 0.041568480432 0.133020982146  -0.00508088478819 0.00464248098433 0.118765294552  0.0384838804603 0.0542355030775 0.219570666552  0.0556482039392 0.09942726045850001 0.165778696537  0.25 -0.25 0  0.25 -0.17904445884 -0.0421267671166  0.0085972994566 0.139411628246 0.206887423992  -0.0427397117019 0.0734880268574 0.199836358428  0.25 -0.25 0.166666666667  0.177338154858 -0.25 0.209433902167  0.178222204231 -0.25 0.126578397361  0.180748909712 -0.154124230146 0.180074676871  0.118582360446 0.0498475395143 0.233844980597  0.113276541233 0.115120351315 0.208414897323  0.068451166153 0.123325429857 0.09300038218499999  0.08695217221980001 0.18308262527 0.11987875402  0.1366494596 0.0978636816144 0.125807240605  0.0170362386853 0.165571182966 0.116205818951  -0.075325883925 -0.13042730093 -0.120773427188  -0.191016584635 -0.1764793396 -0.0778442546725  -0.102759346366 -0.20253264904 -0.07015967369080001  -0.126150563359 -0.115044787526 -0.0573479756713  -0.138729035854 -0.104583211243 -0.134180948138  -0.147993162274 -0.138949289918 -0.203295826912  -0.180331096053 -0.192031860352 -0.160557568073  -0.194399222732 -0.0846866071224 -0.148938387632  -0.11259970814 -0.078034222126 -0.193649172783  0.0326924659312 -0.122268341482 0.0296003930271  0.0215157996863 -0.180560961366 -0.0757267251611  0.0956164896488 -0.0493310950696 -0.0164182558656  0.112129375339 -0.112067811191 -0.105549775064  0.127802968025 -0.106147237122 -0.0110959038138  -0.0854129120708 -0.015297700651 0.056893799454  -0.0204317308962 -0.0795602425933 0.117458000779  -0.178222204231 0.25 0.126578397361  -0.177947182503 0.25 0.0435581305687  -0.107976816083 0.25 0.0905854563709  -0.157577678561 0.178241759539 0.0969507619739  0.25 -0.25 0.333333333333  0.25 -0.25 0.25  0.175776260788 -0.25 0.294629825204  0.25 -0.175495340629 0.295351832328  0.0932372882962 -0.0430554822087 0.0724518448114  -0.044769000262 -0.00661279587075 0.403999477625  -0.194478780031 -0.0247275307775 0.332954645157  -0.173761367798 -0.0806607827544 0.396263659  -0.137637495995 0.00523930834606 0.315887242556  0.0864742994308 -0.139340251684 0.176064118743  0.105438224971 -0.136641919613 0.253711819649  0.0308670303835 -0.25 -0.136809572586  0.0367561832589 -0.25 -0.219583441074  0.0925811678171 -0.20055809617 -0.19996842742  0.0127155454829 -0.193433105946 -0.225977659225  0.0415658205748 -0.200880005956 0.196522325277  0.0373581312597 -0.119548290968 0.120048768818  -0.0954102815882 -0.25 0.346414074494  -0.101368582479 -0.25 0.251933327382  -0.0374909392175 -0.25 0.286229296012  0.0852289572358 0.109103307128 -0.27055695653  0.07707493752239999 0.127253636718 -0.199824258685  0.128097131848 0.07648140937090001 -0.209757223725  0.154867321253 0.13628205657 -0.212952241302  0.08678253740069999 0.189277544618 -0.274375885725  0.127699971199 0.0803090333939 -0.326344817877  0.0577741526067 0.0601542405784 -0.31936660409  0.0525139421225 0.129102528095 -0.326874881983  0.0251371748745 0.175572559237 -0.261228203773  0.0199144631624 0.0927290171385 -0.265960127115  -0.148952946067 -0.121583275497 -0.374568909407  -0.25 0.177950121638 0.0405701099774  -0.25 0.111295968676 -0.00354384794953  -0.175531774759 0.135734900832 0.0562076568604  -0.178730383515 0.191659659147 -0.00562386959791  -0.0244714934379 -0.108516678214 -0.387223660946  -0.09279609471560001 -0.170035287738 -0.445968538523  -0.0281062982976 -0.0
[...]
<PointData  Vectors="f_78"> 
<DataArray  type="Float64"  Name="f_78"  NumberOfComponents="3" format="ascii">-2.5253219882653450e-05 -2.8328429735888314e-05 -4.2777009939112829e-03  1.2294111560379718e-05 -2.1270647912559729e-07 -3.4354956232074360e-03  5.1911214558993793e-05 3.7380612820408837e-05 -3.5836746746570631e-03  1.0060595314220456e-04 -6.1181081540261694e-05 -3.4555838078543146e-03  4.4875369193784085e-05 -4.2949653663550471e-05 -4.2563924376423489e-03  -6.8811789586602253e-05 -2.4040473451372159e-07 -4.5056845481421985e-03  2.8699978885635545e-05 3.0523018261061511e-06 -4.1596633455331031e-03  3.7765655430747289e-05 1.4262777629685298e-05 -3.7351185204898022e-03  1.6213182346718811e-06 -2.0998560862359198e-05 -3.4786803435432976e-03  -8.4279538153766921e-05 2.3401006272532439e-05 -3.6257200903104456e-03  5.1548513882545256e-06 5.1790408664768330e-05 -3.2671787878863988e-03  -1.1910885696443832e-05 2.1310284374467114e-05 -3.7509531891258543e-03  -3.1498995657043116e-05 4.2231127284683549e-05 -3.8941817872102363e-03  -2.6113945555964031e-05 1.2566420647239210e-05 -4.3464983351081269e-03  -6.5917900162015798e-06 1.2752217323350727e-05 -2.5418226761228530e-03  -2.5493538263571242e-05 5.8420037307073581e-05 -2.8236915245320464e-03  2.5962457721881393e-05 6.0004308119117213e-05 -2.9456969369261276e-03  1.4630924421074181e-05 2.0132301132597783e-05 -3.1916655081069951e-03  9.3780892797426893e-06 -2.7197571226470626e-05 -3.2006059486767596e-03  3.2449299070827911e-05 -1.0809036662349312e-04 -4.3940404361510702e-03  -7.6460749234589480e-06 -5.4987644998325597e-05 -3.6587036710102011e-03  -5.4842437366183486e-05 -1.1718551000223362e-04 -3.8615961101576743e-03  -1.6839245885925765e-04 -7.2568562906098538e-05 -3.8647091860184559e-03  -4.4838897452265951e-05 8.5669080965892203e-05 -4.6216755487902663e-03  -2.5188996562442465e-05 -1.4122713030561222e-05 -3.8976927185710507e-03  1.1817486167504521e-04 1.5648100250111974e-05 -4.2466234408070512e-03  1.9109961638570419e-04 4.0088441310677942e-05 -3.9903060890545813e-03  -4.0718655059304487e-05 3.2521072844790465e-07 -3.6465871174158194e-03  -3.4398508011809531e-05 1.9431878858222764e-04 -3.3502687761073719e-03  -9.6301550797466459e-05 2.0609986048380734e-04 -4.6902310090122020e-03  4.4144384660327031e-05 5.4822294704229307e-05 -4.0152010158821163e-03  -2.1472708309154597e-04 1.1850185815207351e-05 -3.9683178293515422e-03  1.4919351518733708e-05 1.2363363482777326e-05 -3.7963235665020539e-03  -1.6980863151427828e-05 3.5160054599699953e-05 -3.8275486486951255e-03  2.6141897486737185e-06 8.0435343202648191e-06 -4.1616252558110385e-03  1.7741467704592298e-05 5.2074162043235096e-05 -4.0431696356971226e-03  6.8842606410053960e-08 2.6156837588549586e-05 -3.9808864780107381e-03  1.0163338882308385e-05 -5.0837592526359069e-06 5.1194005512785015e-06  3.8163498657932516e-06 -4.3513963744304521e-06 1.4108549160873991e-05  -1.0453769177435511e-06 1.5520294788256845e-06 1.1016607264642615e-05  2.4650789295087390e-06 -4.4372368294776683e-06 6.2899341896044122e-06  -2.0805291303695079e-05 6.4293823036252814e-05 -4.1167511886106723e-03  -4.2737330853609437e-05 1.5630403242422876e-05 -4.2177888966669699e-03  4.5675896139425372e-07 3.2376774810855716e-05 -4.3321653406616922e-03  5.2580274883127384e-05 -8.1097534218673584e-05 -3.6733394094064227e-03  -3.8342771841745797e-05 -2.9357744543850564e-05 -4.2290032165112120e-03  6.2946555088613966e-05 1.1370559889951368e-04 -3.8924044628296183e-03  -3.3452740866533138e-05 6.4194002645475136e-05 -4.7305023248026701e-03  -9.0930556203249187e-05 -1.0372270605194027e-04 -4.2369575584874893e-03  3.7336677926715764e-05 1.8485570704088416e-04 -3.3650362900983152e-03  4.3052415313763408e-05 -1.3499985548425149e-04 -4.3792321350034965e-03  2.5967415548029807e-06 5.0434664935690625e-06 -3.4886290281160876e-03  2.1085563533464150e-04 -3.3910647422645977e-05 -3.7909907375316279e-03  -4.6806641894743595e-05 -2.1449137046474184e-04 -3.7448624250724528e-03  1.6356581453947000e-05 4.6105907473610904e-05 -3.6345350328597092e-03  -3.8625972887339257e-05 -1.6204217422994467e-05 -3.9989881836906323e-03  -1.6505087760189941e-04 5.6710460280138884e-05 -2.6921145990454740e-03  4.4801299779028011e-05 1.2858523758797564e-05 -4.1395565285663313e-03  -5.3564631237633830e-05 4.6696278491607537e-05 -4.0556758534520216e-03  -9.4614075713570449e-05 -6.2792097543027805e-05 -4.8726664969183193e-03  -3.5064805530107246e-05 -3.8625573582729622e-05 -3.4150395798892776e-03  6.4695968660612784e-05 7.4778420096669238e-05 -3.9120264651211463e-03  -3.8174219117169605e-06 1.3660452604946690e-05 -3.8919109429646011e-03  7.7112713226082062e-06 -5.8650881550434734e-06 -3.9007554959759353e-03  7.7121812562737837e-07 -1.1914351782089440e-05 1.2270427937449447e-06  -2.5604947365579292e-04 -3.4650009275397367e-05 -5.6220130072813174e-03  7.2263022753072981e-05 -2.6884628418886400e-04 -3.6916277555109869e-03  -1.4482121818476586e-04 1.0742412422310121e-04 -2.8276371291392883e-03  -2.6166888685237507e-06 7.2832041479112930e-06 -3.7279436900509747e-03  1.1303920083891617e-05 -2.9303587718780398e-05 -3.5824879977992348e-03  1.1905337677373077e-06 2.6169447973906394e-06 -1.3850745981274760e-06  -1.2573946053079722e-05 1.2789038297185020e-06 8.5227707234425327e-07  3.5537711173004799e-05 2.2898662076670398e-05 -4.1305837864412656e-03  -6.0023285346938886e-07 1.7860271217595124e-06 -9.8758731038353864e-07  1.4291189436624020e-06 8.7806747949971817e-06 2.2844572875744349e-06  1.7460505955596897e-06 -2.6443220547941362e-06 4.5555349537690253e-06  1.2145118515906244e-04 -3.5700413583321887e-04 -2.7147251030670964e-03  -6.7207093557604901e-07 2.8176926637508569e-06 -7.8642602694175963e-08  -1.3027111157998187e-06 -3.2123559073349551e-06 2.7976521660680724e-07  1.3488482844435128e-07 1.2889357450733265e-05 -1.6163821289141809e-07  2.7014395750748250e-06 3.6488405576356884e-04 -3.9503696864307911e-03  -4.5396689992653369e-05 -6.7016702844679900e-05 -3.3832053571586805e-03  2.1261627746472878e-05 -1.7029062774667177e-05 -4.1347176256590268e-03  5.5961626218331633e-06 -6.0416631515637675e-05 -3.8754303854798924e-03  1.3400403277960290e-05 -5.6879937930195657e-05 -3.1061947580726299e-03  -1.4313274158263116e-04 -7.3894357844427885e-05 -3.0189176244023986e-03  -2.2504267404653897e-05 -2.1942527555324134e-05 -3.4917863147795125e-03  6.1741915008308275e-05 -9.5530344498194499e-05 -3.8361539191257431e-03  -1.7895572182212983e-04 -2.8467940102163400e-05 -4.0889061450066176e-03  -1.2694433002557833e-05 -2.4813326462940594e-04 -2.9154658959000004e-03  -3.5522349342225290e-05 -1.0717447563223732e-04 -3.5860583873899600e-03  -4.9564273804425722e-05 1.1626706177343129e-04 -3.1166505951502367e-03  -5.7212420568106850e-05 -5.2012221328233718e-05 -3.5757382687647810e-03  1.6135377779834641e-04 -2.0596397361482004e-04 -3.5249981029432885e-03  -1.7984450428920634e-04 -8.8066569960540576e-05 -3.0307873915595318e-03  -6.2150036239004235e-05 4.1458978290796816e-05 -2.9836722637385442e-03  2.3583763352316584e-04 -3.8710435276915159e-05 -4.3863885942225797e-03  1.3971058696551024e-04 -3.1487520289281761e-04 -4.0020554259997095e-03  -3.6130348752795944e-05 -3.7850714916916735e-05 -4.0358512143172090e-03  -1.7259265906131490e-05 2.8880106347145594e-04 -3.7988357006380818e-03  -3.9668494703484368e-05 2.5027062039991192e-04 -4.4156950563525770e-03  4.2423140193594760e-05 -4.3351483956125451e-06 -2.6525733479322465e-03  -4.2473612400554229e-05 -1.7591456338210514e-05 -2.7421780340483428e-03  8.6420984551631509e-05 -7.8863339590372655e-06 -4.6427558018693653e-03  5.1878481614869690e-05 4.8504571849226787e-05 -3.7064088577850782e-03  -3.1542235015359533e-05 5.7792366662707037e-05 -3.6133635808440804e-03  -8.9128506166245312e-06 -9.9317826234587578e-06 2.0612443111938017e-06  1.4029841746967212e-05 2.4926777915998926e-05 -3.6494485267623577e-03  1.8116988884247519e-05 2.1471891948340706e-05 -4.8151038530424425e-03  2.4476933142575770e-05 4.4269456386621812e-05 -4.0724911819852759e-03  -2.2172745673184625e-06 -1.1673889478073801e-05 -4.1402101931856724e-03  5.2011660040908689e-05 8.4357143013145521e-05 -2.9752574622317874e-03  5.4377328425165503e-07 -3.3557662109440645e-06 3.2604119747226769e-07  -6.6455691122998498e-06 4.2387616674130062e-04 -3.8933762479325890e-03  -2.2699904137481379e-04 4.1053166972155816e-04 -4.6073501520464541e-03  4.4469900601085528e-04 -4.2603154863346510e-04 -2.9077072051764126e-03  -2.2406435011624963e-04 1.2848324515785112e-04 -4.4407665410131497e-03  8.6731696777679723e-05 9.6073164534723031e-05 -3.3835121369780912e-03  1.2054005822289182e-05 1.6112448779212693e-04 -4.3687252941468167e-03  1.5318085466171813e-05 -1.0531981299499776e-05 -3.4491264063825923e-03  -4.3683100007815426e-05 -3.3431552052453419e-05 -3.5673451301635709e-03  4.6432808109150985e-05 4.2332738928235535e-05 -2.1912608597513864e-03  -4.2775422900478738e-05 8.0801525770799200e-05 -3.1764069773089136e-03  1.1251349195881938e-04 -4.2383021863324896e-05 -2.9347330466996261e-03  6.9488115882878850e-05 7.5397990234324873e-05 -3.7856220886339611e-03  4.2647623795994376e-04 -4.0164937134380734e-05 -2.9907948649770151e-03  2.9100685796656396e-04 2.5116964145643150e-07 -4.0126652064744238e-03  -4.0474582273045818e-05 -6.2923665117290976e-05 -3.4764641959318891e-03  1.4584006008613824e-04 4.2459721868003559e-05 -2.3809939669234546e-03  -2.7590001980540096e-06 -4.3947015917915294e-06 6.4778072905308116e-07  2.4168579435158228e-06 3.1503394013717926e-06 -6.8876146088987358e-07  -2.9472492889243428e-04 3.7990912958808017e-04 -4.5525736493273730e-03  1.2236223018790806e-04 -2.9944569346839048e-04 -2.4409321055704164e-03  3.0993452864874703e-05 8.6563843142062740e-06 -4.1627195686615194e-03  -5.8951837769654231e-06 -4.7772913546551459e-05 -3.6015589957688445e-03  1.7349292996679259e-05 -1.2598581491338725e-05 -3.7182204252031777e-03  -3.5716236372066263e-05 7.2563536436998706e-05 -4.4328743772314065e-03  -2.3115004274635446e-05 -4.1572461632713983e-05 -3.7717582424738614e-03  7.6650359123207215e-06 -1.0468810390972790e-05 3.3226623854523353e-06  -1.6160258686553397e-05 2.1699307397644377e-09 -2.6525942414645251e-06  8.9379011442247038e-05 -1.2655808166132864e-04 -4.3170620922559173e-03  1.0737215821741679e-04 5.0847355490753970e-05 -3.5487852454352212e-03  1.5863609688722540e-05 -1.4294944689953025e-05 6.0519258591657386e-07  4.9043212103165848e-06 6.3566881680812956e-06 -2.1944933186863042e-06  4.3671365723385571e-07 1.5501153389620520e-05 2.6388207338372795e-06  -1.0834705855822007e-04 1.4755045815002552e-04 -2.5427828434273830e-03  7.3511562363983595e-05 1.8132967001144898e-04 -3.9817381819508323e-03  5.9009873129040271e-05 -1.0604994805279357e-05 -2.7331356557845779e-03  -8.4391304724069436e-05 -1.5738700523806102e-05 -4.0069979408866316e-03  -1.2286746918366336e-04 -5.0960527451993560e-05 -3.5251613458645694e-03  -4.0557941025637760e-06 -2.8483033789165688e-05 -3.0703351268696558e-03  3.4971811251710117e-05 -5.2978378422540374e-05 -2.6797133702108470e-03  1.4461919523209316e-05 3.5329068578580389e-05 -4.0445513358876826e-03  9.0945605690974498e-05 7.1735921660058321e-05 -2.4128613732146086e-03  -1.1063253668123921e-06 -8.5351584573827238e-06 -4.5947697718704706e-03  1.0214400849683300e-05 3.9821831778812497e-05 -4.3768307513299201e-03  -3.4984851143122260e-05 -1.7770875211921312e-05 -3.1525000599826611e-03  8.2049646655892665e-05 4.2650010734344464e-05 -4.8571290561945316e-03  -5.7099567534716654e-05 1.3124328328784784e-04 -3.9947156712557162e-03  -1.4085620260148313e-05 1.4471491510839943e-04 -2.1588195178010266e-03  3.3972360892642477e-05 1.0445817829986966e-04 -3.3587534625512333e-03  -3.2078724032034055e-05 -6.8212114986987614e-05 -3.7025518640156499e-03  -1.0544815378255922e-04 1.1369300717659684e-04 -3.0484888048829335e-03  -6.1769730262264610e-05 2.5777158947189349e-07 -4.4545565061705128e-03  5.8117307862249378e-05 1.1806485252086704e-05 -3.2348717004576874e-03  1.8055190248677478e-04 -1.0566933046789296e-05 -4.1012113715046573e-03  3.9744494660074746e-05 -8.8176070729476235e-06 -3.5989459693388359e-03  7.7572706682392035e-07 1.0785306979643812e-05 -3.7629271794579764e-03  -5.6576550498365392e-07 -1.1758063512777218e-05 -3.4556282795450710e-07  -6.5445576820365891e-07 -1.1129207564384264e-05 4.0256176252345256e-06  9.0491143151568593e-06 3.6954758301106981e-06 1.2321851314981587e-06  -1.0875720335839106e-04 -1.1566518990012324e-04 -2.0007546297005968e-03  1.5991745939400943e-05 -1.4715085148275919e-05 8.4086377687220956e-06  2.0082410348796531e-06 -3.7854919632210898e-06 -1.4692657354050687e-06  1.4606388246073047e-06 1.1615492598082526e-05 2.7298736647815824e-06  -1.2135095388361211e-05 -1.4548226455262221e-06 3.0904554762464419e-06  -5.0006535125456041e-05 -2.1415817646568535e-05 -3.7136485844740524e-03  6.5148183552405772e-05 3.8851109298445550e-05 -3.1632172714794633e-03  -2.4454562711106982e-04 1.6057279969698714e-04 -4.0292142165507701e-03  2.2667780981999582e-05 2.6850078563535871e-04 -3.5856041534213018e-03  1.4513142698939252e-04 -1.7309116226895026e-06 -3.4044416811371964e-03  -7.6483660559348573e-05 2.0555365241236675e-04 -3.4976758055402747e-03  -1.9163462960102465e-04 -3.2137274463130464e-04 -3.4602816022384362e-03  1.4990090300194125e-07 -2.1186481538093336e-07 3.0027337911334233e-07  -5.7403599986981501e-08 9.5758060480984301e-07 1.9118025359759722e-06  8.3688855849737491e-05 -1.1277698272987646e-04 -3.6793073999995068e-03  -1.4439701002899729e-04 2.2370532137366101e-04 -2.2364644764951429e-03  -1.7777613176889603e-05 -1.2476909995335725e-04 -5.1099107891154922e-03  1.4123497519606964e-05 1.9206949903823438e-05 -4.0974659668273350e-03  -3.1890575259626295e-07 -4.6476549643752950e-06 5.0193538290810355e-06  -1.3308206345232194e-06 -9.1095241626631099e-06 -1.6170402852395014e-06  -3.6414561769042547e-06 1.0729716864359223e-05 2.3617025852153639e-08  7.7899786209088210e-05 -7.2074283059421037e-05 -2.4339314965658625e-03  -9.1763117405847558e-05 -6.3708362964112617e-05 -2.9065309566186541e-03  1.3280286216771946e-05 -5.1469610173632986e-05 -3.7402944676322085e-03  -4.0281690349698383e-05 -2.7608593130157705e-05 -2.5534235179178405e-03  5.6603182756888412e-05 -3.7077872855127660e-06 -1.9598095616598782e-03  -3.0348197523950238e-05 -2.0092287539746797e-05 -4.8950595879763510e-03  3.2086257109457596e-05 -4.6486694538870554e-06 -4.0713407735481922e-03  8.3969929339134174e-06 3.5027395783006725e-05 -3.4797617764776617e-03  4.8857110529468324e-06 -8.9086812726134324e-05 -2.0937376980540417e-03  1.0767822422710116e-05 -1.8072047683099018e-06 -4.1841076210369895e-03  4.4572287423389511e-05 2.0371814727998322e-05 -4.3433115626946225e-03  6.4993112688814847e-06 4.1145875865664398e-06 5.0099908521193619e-06  2.0240921557635467e-06 2.3195248955666966e-06 -5.0105450822020559e-07  3.7207407179838718e-04 -1.3477853495813145e-04 -2.2378798291768972e-03  -8.4917931227063506e-05 7.5107218687886428e-06 -4.8842354984342624e-03  -1.5447104796828604e-05 8.6185575939928564e-05 -3.4969047976405958e-03  3.2271931559993549e-05 2.3233775043098977e-05 -3.9811253540275766e-03  9.7775030939248567e-06 1.8113459430746960e-05 -4.1974905079219926e-03  3.0664253174387082e-06 -4.5011828177460633e-06 -2.6704228253308866e-06  3.3164510206234896e-06 1.9462892834173696e-06 1.1377102394550421e-06  5.1439671149891007e-05 -5.7675368609100091e-05 -3.2550225914821530e-03  5.2815368455406276e-05 8.2470268541824331e-05 -3.1999218652861692e-03  -1.6858573171787224e-05 5.6367069525042332e-06 -3.0612896912042436e-03  -7.0621352020180082e-05 5.6257681643748513e-05 -3.6939674851905230e-03  7.3480841475432050e-06 -2.1185556211062418e-05 -3.8618165767385863e-03  -1.8895742884681467e-08 3.6038668209185609e-06 -4.5701472429253070e-06  2.9084845626796792e-07 1.5981181414134508e-06 -2.7074113947296648e-06  8.2491393600003018e-08 -1.2109275511336775e-06 1.5795128339979005e-06  3.8341303540265308e-05 3.3724618706756426e-05 -4.4629088384295227e-03  1.0020828851714257e-05 3.1165011952662998e-05 -4.0481650111937129e-03  -2.4432952413905402e-06 5.2457273422284958e-05 -4.2690896442586250e-03  -1.6497101832423382e-05 6.1259663809280808e-05 -4.4975181703816080e-03  -2.8279903938185332e-05 -8.5049461338433335e-05 -5.0673225571407762e-03  -8.0520706620503004e-05 -4.7736859968077813e-05 -3.3832118384920875e-03  1.0602081909206481e-05 -4.1231843934670755e-05 -3.3145359649642695e-03  -1.9016759178723685e-06 1.3116814477412234e-05 5.2216547503672861e-06  -2.6548090121566862e-07 -6.6621661644221824e-06 -2.6465856885194903e-06  -2.1050180757560644e-04 -4.0679979153186125e-05 -3.0271273838863326e-03  1.0724902925061628e-04 1.2747368680395431e-06 -2.6872356917003221e-03  -1.0774951125361059e-05 6.3995724226637062e-05 -2.1878271202480162e-03  1.0367248935930986e-04 -6.7081294665689706e-05 -3.3550317553914513e-03  -5.6936887584220048e-05 -8.9923860532034044e-05 -3.7035438339805475e-03  -1.1375871966540309e-05 -1.1872542314189343e-04 -3.4756871590778350e-03  1.2678045403177629e-04 -8.2734895611443716e-05 -4.4019214619851477e-03  -1.0429801990395066e-04 2.3202617762386042e-04 -2.8227141045706569e-03  -1.5899285773114194e-04 7.8724606603060670e-05 -2.1708714944472913e-03  2.1008745600293179e-05 -1.6453198517653858e-06 -3.6888986561253363e-03  2.0463937970696837e-05 5.7069863680262581e-05 -4.6299630928998449e-03  8.4908820910783734e-05 -4.2935543907639828e-06 -4.0607302946938069e-03  -1.5866808247045776e-05 2.8116686063697101e-05 -3.4012870021270943e-03  2.7172482443505646e-06 -4.6084791432607067e-05 -3.8886129839175950e-03  2.7691841216718902e-05 -5.4529749943539370e-05 -4.4080056806928567e-03  2.2038915278155741e-05 2.1122049794193337e-05 -4.2882894715888190e-03  -1.7609925273116643e-05 -1.3135836312445835e-05 -4.0109580141792301e-03  -4.9305103345373434e-05 -1.6932670623509009e-05 -4.0561493865455562e-03  1.0308081285137858e-04 4.2749722905021624e-05 -3.1627875190977967e-03  6.9281942616828521e-05 6.0959993397107216e-07 -3.9271587704218505e-03  -8.2832853317468060e-05 -1.1674105453043342e-04 -4.3826674082314138e-03  -2.3776969342894815e-05 -9.1513426043170106e-05 -4.5958342215169151e-03  -6.1009786750718574e-05 -8.9723064801650965e-05 -4.8958852749201361e-03  -8.3051187129049006e-05 5.8759522627259081e-05 -2.7132928228499860e-03  2.4621553245666266e-05 -8.1999843979716340e-05 -4.0143067611825185e-03  -7.6880946266711360e-05 -6.2253474938803240e-05 -3.0596585800584820e-03  4.5712262894597441e-05 1.6497428118424033e-04 -4.1420578828249106e-03  -5.4777934319452807e-05 1.1287280671543335e-04 -1.5393451797033654e-03  1.2940383677796495e-04 -2.9745458905680182e-04 -4.5242558743340735e-03  5.3131366703886281e-05 1.9591687369232067e-04 -2.8013045100829504e-03  -5.3946602881312880e-05 5.9770962218658935e-06 -3.4098541380099233e-03  -5.7705534094550708e-05 2.4880521486146016e-05 -3.3306590920869077e-03  1.3895326226396642e-06 -7.4626521701496729e-06 -1.7844703813463719e-06  -9.4803364605946705e-07 -8.8431516537744263e-06 -3.5261405536167950e-06  5.7795445512222153e-07 1.2297845942589442e-05 1.0980913606374943e-06  2.3625496516845233e-04 -2.1362159095025032e-04 -4.4893589496506538e-03  -6.3341790855650135e-05 3.2066573892159151e-05 -3.1379208948678333e-03  7.7133180035088503e-05 6.5686115010185858e-07 -4.4581489132413899e-03  -1.3810897239840026e-04 1.1553400229831623e-05 -3.9683354201044763e-03  -4.2565630754221219e-04 -1.3294299872289642e-04 -4.2969771073839624e-03  8.5666634621185941e-05 -1.1596324507423472e-04 -4.0306785502303892e-03  4.9356929850826517e-05 1.1269683402431205e-04 -2.8168112770001479e-03  -2.3454594062787250e-05 -1.8155328123339363e-04 -3.7765743528160073e-03  -2.0328469453210408e-05 -1.1797581825968076e-04 -3.2980959674005152e-03  2.2673619076968905e-06 6.8389165841399983e-06 -4.4891813663535199e-06  -4.0847504278181959e-07 3.2507397010132027e-06 -3.1953315044165260e-06  8.3061671302315504e-05 1.3081488973802548e-04 -4.3624742411785874e-03  -1.3486893168232272e-06 5.0707185428835978e-06 -6.62826140588