<?xml version="1.0"?>
<VTKFile type="UnstructuredGrid"  version="0.1"  >
<UnstructuredGrid>
<Piece  NumberOfPoints="857" NumberOfCells="3763">
<Points>
<DataArray  type="Float64"  NumberOfComponents="3"  format="ascii">-0.0182597916573 0.126128911972 -0.119588643312  -0.0077641364187 0.0512270443141 -0.07050477713349999  -0.0237180162221 0.16240182519 -0.053058128804  -0.107877351344 0.105669431388 -0.0502408407629  -0.0444478429854 0.116080775857 -0.00235075876117  0.0393674038351 0.112876079977 -0.0491501875222  0.0248903874308 0.0489483103156 0.000152088920004  0.0314915925264 0.114928804338 0.0218031276017  -0.0657326281071 0.0685198307037 0.0497140102088  -0.0355357266963 0.164656624198 0.0508319064975  -0.010538729839 -0.0422629192472 -0.208358153701  -0.0239527057856 0.0135364839807 -0.242119863629  -0.0194642152637 -0.0775559768081 -0.263431429863  -0.08492307364939999 -0.0108216870576 -0.280446648598  -0.08293507993220001 -0.0361198186874 -0.159778758883  -0.0240796487778 -0.0824203491211 -0.148982465267  0.0430508553982 -0.121076337993 -0.234084427357  0.0307756774127 0.0324950888753 -0.198437720537  0.00352357281372 -0.00433266581967 -0.144715368748  -0.0456651262939 0.08372022956609999 0.342343091965  -0.116630032659 0.0117083769292 0.386158525944  -0.08223126828669999 0.0577075146139 0.289406776428  -0.0511222109199 0.00205342215486 0.300772219896  -0.0125984866172 0.0267426930368 0.351842552423  0.0303636882454 0.0561947338283 0.391145974398  -0.0524924062192 0.0543583929539 0.40361738205  -0.07944945245979999 0.130002260208 0.441037595272  -0.000730989675503 0.119443200529 0.385622620583  -0.078488714993 0.137875169516 0.332541137934  0.0142801422626 0.110509291291 0.27100610733  0.0224165506661 0.08303219079970001 0.331783413887  -0.0170432701707 0.161798536777 0.30022162199  0.000811119796708 -0.0515509881079 -0.08419398218390001  0.0888616070151 -0.015075173229 -0.0776951387525  -0.0989535748959 -0.0518730916083 -0.08125374466180001  -0.0433920919895 -0.09785594791170001 0.0106235472485  -0.0488061010838 0.0295096840709 -0.0131453983486  -0.25 0.25 0.5  -0.166666666667 0.25 0.5  -0.25 0.195066730511 0.445658150344  -0.19506166517 0.25 0.445542865294  -0.0213422998786 -0.126349791884 -0.045622177422  -0.117952652276 0.0158270020038 -0.16616243124  -0.0531469397247 0.0490713231266 -0.13630309701  0.0358348339796 -0.131537660956 -0.134171053767  0.0583617314696 -0.115307979286 -0.0462360456586  0.010585160926 -0.0606908276677 0.314250290394  0.078067921102 -0.133790805936 0.331458956003  0.0206208750606 -0.104583717883 0.36723652482  0.0300164371729 -0.13569638133 0.270959883928  0.0797956883907 -0.07311873137949999 0.388136893511  0.0291880238801 -0.0850581228733 0.220644980669  0.0788302049041 -0.07555303722620001 0.284453928471  -0.0465739220381 -0.108428947628 0.305151432753  -0.056692365557 -0.0812899768353 0.234353885055  0.10282895714 0.0630551427603 -0.0452189296484  0.178613707423 0.153893724084 -0.0703043565154  0.0750898644328 0.130835875869 -0.116260357201  0.0179002508521 -0.0400723591447 0.396018892527  0.07961820065980001 -0.020668130368 0.232235535979  -0.00726175494492 -0.022667773068 0.242156982422  0.0524490773678 0.0171752162278 0.310696065426  0.0103002395481 0.0813155695796 0.107229083776  0.00225681974553 -0.008687185123560001 0.0457225777209  0.177950121638 0.25 0.0405701099774  0.151375159621 0.202163234353 -0.00268407491967  0.13042794168 0.172564610839 0.0599601529539  0.184557154775 0.16295710206 -0.00737970136106  0.0827306732535 0.011830884032 0.0299163535237  0.106673434377 0.0676268041134 0.0663062110543  0.25 0.25 0  0.25 0.177947182503 0.0435581305687  0.0251978598535 -0.0201241951436 -0.0233656335622  -0.25 -0.25 0.25  -0.175495340629 -0.25 0.295351832328  -0.25 -0.175776260788 0.294629825204  -0.164853364229 -0.189889326692 0.246240898967  0.111295968676 0.25 -0.00354384794953  0.0417815256417 0.25 0.0264120515999  0.0577150444892 0.25 -0.0418173710713  0.035034801811 0.196921139956 -0.0497792549431  -0.115254960954 0.0352221727371 -0.0357825122774  0.0360979661345 0.0743419006467 -0.130612716079  0.08110298216340001 0.0143552683294 -0.135737240314  0.0281950440258 0.110801942647 -0.38559025526  -0.000352636008756 0.154027625918 -0.45018479228  0.0220217909664 0.07910815626379999 -0.445265561342  -0.041934799403 0.09297795593740001 -0.440330862999  -0.115356497467 0.128115877509 0.0303980205208  -0.08144567906859999 0.192924261093 -0.0396481454372  -0.0503155887127 -0.140062868595 0.370642662048  0.0181560348719 -0.191118896008 0.319997102022  -0.09442232549189999 -0.0766885429621 0.347179293633  -0.10306725651 -0.0245223585516 0.261891931295  -0.0371639840305 -0.192689821124 0.258922994137  -0.08778057992460001 -0.193450272083 0.293951839209  -0.116932563484 -0.137108251452 0.278956532478  -0.0434515699744 -0.19969072938 0.340430229902  -0.016621209681 -0.143479332328 0.208528921008  -0.0799133181572 -0.177766740322 0.206858798862  -0.0340202823281 -0.07231882214550001 0.405357718468  -0.153045728803 -0.0703692808747 0.28540495038  -0.0647673308849 -0.069349065423 -0.297796696424  -0.0468406006694 -0.118580199778 -0.331259429455  -0.0636249184608 -0.122360698879 -0.235275790095  -0.137311711907 -0.115820750594 -0.279358655214  -0.25 -0.25 0.333333333333  -0.00222280388698 -0.0275516584516 -0.327156513929  0.0233143884689 -0.124395690858 -0.330935031176  -0.00544846989214 -0.0444226972759 -0.392852008343  -0.07202984392639999 -0.0450558848679 -0.379192590714  -0.128861442208 -0.0482712239027 -0.325591087341  -0.0319190612757 0.25 0.27473160228  0.0259018652141 0.196524605155 0.343851953745  -0.0424101948738 0.196461260319 0.324036180973  -0.08801463991400001 0.193724930286 0.280150324106  -0.051391992718 0.129726842046 0.244459152222  0.0793330296874 0.131078347564 0.273738384247  0.0304427426308 0.197590425611 0.258007407188  0.139736711979 -0.103549621999 0.308288753033  0.117407329381 -0.00031748006586 0.284001767635  0.17845864594 0.0137020656839 0.2717012465  0.133446916938 -0.07468281686309999 0.252671837807  0.193237304688 0.0103836003691 0.32706490159  0.108656100929 -0.016409387812 0.370573759079  0.195593327284 -0.0705924406648 0.374003827572  0.204297035933 -0.0882691517472 0.283604085445  0.15987212956 -0.0232784096152 0.211559042335  0.103109702468 -0.0715631917119 0.185957938433  0.25 -0.177950121638 0.0405701099774  0.25 -0.111295968676 -0.00354384794953  0.168315500021 -0.181550845504 -0.0129796266556  0.203061833978 -0.0839376300573 0.0201103240252  -0.123973377049 0.0421161539853 0.0831994190812  0.10652089864 0.041568480432 0.133020982146  -0.00508088478819 0.00464248098433 0.118765294552  0.0384838804603 0.0542355030775 0.219570666552  0.0556482039392 0.09942726045850001 0.165778696537  0.25 -0.25 0  0.25 -0.17904445884 -0.0421267671166  0.0085972994566 0.139411628246 0.206887423992  -0.0427397117019 0.0734880268574 0.199836358428  0.25 -0.25 0.166666666667  0.177338154858 -0.25 0.209433902167  0.178222204231 -0.25 0.126578397361  0.180748909712 -0.154124230146 0.180074676871  0.118582360446 0.0498475395143 0.233844980597  0.113276541233 0.115120351315 0.208414897323  0.068451166153 0.123325429857 0.09300038218499999  0.08695217221980001 0.18308262527 0.11987875402  0.1366494596 0.0978636816144 0.125807240605  0.0170362386853 0.165571182966 0.116205818951  -0.075325883925 -0.13042730093 -0.120773427188  -0.191016584635 -0.1764793396 -0.0778442546725  -0.102759346366 -0.20253264904 -0.07015967369080001  -0.126150563359 -0.115044787526 -0.0573479756713  -0.138729035854 -0.104583211243 -0.134180948138  -0.147993162274 -0.138949289918 -0.203295826912  -0.180331096053 -0.192031860352 -0.160557568073  -0.194399222732 -0.0846866071224 -0.148938387632  -0.11259970814 -0.078034222126 -0.193649172783  0.0326924659312 -0.122268341482 0.0296003930271  0.0215157996863 -0.180560961366 -0.0757267251611  0.0956164896488 -0.0493310950696 -0.0164182558656  0.112129375339 -0.112067811191 -0.105549775064  0.127802968025 -0.106147237122 -0.0110959038138  -0.0854129120708 -0.015297700651 0.056893799454  -0.0204317308962 -0.0795602425933 0.117458000779  -0.178222204231 0.25 0.126578397361  -0.177947182503 0.25 0.0435581305687  -0.107976816083 0.25 0.0905854563709  -0.157577678561 0.178241759539 0.0969507619739  0.25 -0.25 0.333333333333  0.25 -0.25 0.25  0.175776260788 -0.25 0.294629825204  0.25 -0.175495340629 0.295351832328  0.0932372882962 -0.0430554822087 0.0724518448114  -0.044769000262 -0.00661279587075 0.403999477625  -0.194478780031 -0.0247275307775 0.332954645157  -0.173761367798 -0.0806607827544 0.396263659  -0.137637495995 0.00523930834606 0.315887242556  0.0864742994308 -0.139340251684 0.176064118743  0.105438224971 -0.136641919613 0.253711819649  0.0308670303835 -0.25 -0.136809572586  0.0367561832589 -0.25 -0.219583441074  0.0925811678171 -0.20055809617 -0.19996842742  0.0127155454829 -0.193433105946 -0.225977659225  0.0415658205748 -0.200880005956 0.196522325277  0.0373581312597 -0.119548290968 0.120048768818  -0.0954102815882 -0.25 0.346414074494  -0.101368582479 -0.25 0.251933327382  -0.0374909392175 -0.25 0.286229296012  0.0852289572358 0.109103307128 -0.27055695653  0.07707493752239999 0.127253636718 -0.199824258685  0.128097131848 0.07648140937090001 -0.209757223725  0.154867321253 0.13628205657 -0.212952241302  0.08678253740069999 0.189277544618 -0.274375885725  0.127699971199 0.0803090333939 -0.326344817877  0.0577741526067 0.0601542405784 -0.31936660409  0.0525139421225 0.129102528095 -0.326874881983  0.0251371748745 0.175572559237 -0.261228203773  0.0199144631624 0.0927290171385 -0.265960127115  -0.148952946067 -0.121583275497 -0.374568909407  -0.25 0.177950121638 0.0405701099774  -0.25 0.111295968676 -0.00354384794953  -0.175531774759 0.135734900832 0.0562076568604  -0.178730383515 0.191659659147 -0.00562386959791  -0.0244714934379 -0.108516678214 -0.387223660946  -0.09279609471560001 -0.170035287738 -0.445968538523  -0.0281062982976 -0.0
[...]
<PointData  Vectors="f_104"> 
<DataArray  type="Float64"  Name="f_104"  NumberOfComponents="3" format="ascii">3.4322038170566027e-05 8.6679462834847541e-04 1.4960222205149537e-01  5.4845984207865990e-04 5.6398770414033789e-04 1.8160386743994203e-01  -1.0336746763313905e-04 6.1907262359153336e-04 1.2186665075778373e-01  -1.2972005976284251e-04 -1.7362956910329272e-04 1.4187017321995449e-01  -1.0587615156915414e-03 3.9467576515474397e-04 1.5520381886356047e-01  -9.3959198380644238e-04 -1.1974018493811391e-03 1.5725152910065132e-01  3.6856204663015196e-04 -4.6792968469715599e-05 1.8112443984806054e-01  -6.5528185905042245e-04 1.3883579347537598e-04 1.5592959183447139e-01  -1.1882636798571811e-03 1.8917123606176331e-04 1.6995609569371323e-01  1.9582078205091694e-06 1.3690473295046345e-03 1.2058918628655857e-01  -8.0909898844596707e-04 2.1055809901493995e-05 1.8269784690071808e-01  -3.6766737751546421e-06 9.3589902981518932e-05 1.8467937633446355e-01  7.4811099372131128e-05 2.5311329438644845e-04 1.7149425992541786e-01  9.1029049751540980e-05 -6.9063912992417859e-05 1.6811187373514458e-01  3.8631292677990042e-04 7.5572904184204840e-04 1.6893463251147847e-01  -2.1369828611846484e-04 -3.0872612273849466e-04 1.7155072229232324e-01  -6.9469910724258467e-05 3.3909087040091113e-04 1.4671712900162603e-01  7.9367948448867391e-05 -7.3258256061534903e-04 1.8263485598533347e-01  -2.6994395123292704e-04 -2.6365475439523112e-04 1.8780594913472706e-01  -6.5410856498167398e-03 9.6391680387611298e-03 1.5427757656811522e-01  -1.6020991790055478e-02 1.6121873794875919e-03 1.4171330163515730e-01  -5.9518292206154535e-03 3.8268554726992791e-03 1.6169101670383348e-01  -6.7868900139014922e-03 -1.6628114587277924e-04 1.7196934761792895e-01  -3.6432133966968080e-03 3.1571357006262295e-03 1.6231868710738021e-01  5.2048113071210449e-03 9.2162356173166177e-03 1.4664105878175848e-01  -9.4042841882041300e-03 9.2786263534752819e-03 1.4275306155961712e-01  -1.3984432350767108e-02 2.2962867908852838e-02 1.2572381487176854e-01  -7.3851206436964447e-04 1.5451915615334679e-02 1.3711487926144791e-01  -5.6499495897948011e-03 8.1391889623233533e-03 1.2876430743703052e-01  1.9872702646687858e-03 6.1679666375116723e-03 1.5216962473139242e-01  8.5014928301214185e-04 7.7178559606633501e-03 1.5659917826529446e-01  -9.6734899458834650e-04 6.3568302436550674e-03 1.2253385258755610e-01  -5.4323554855984543e-04 -1.6331570747502917e-04 1.8173453457611072e-01  -1.4238664435069018e-05 7.9988489871479480e-04 1.6821999869527784e-01  -1.0448490381705680e-04 -1.2194708428334012e-04 1.5902816082912175e-01  1.1050018575983012e-03 -1.1565147500256681e-03 1.6381532387188438e-01  -9.0295562981978215e-04 1.7317725376814076e-03 1.8180304186132262e-01  -1.0839572655218302e-02 1.0221647948533894e-02 1.3395671236775403e-01  -8.6886075131277461e-03 5.2146487504535566e-03 1.2602727308221345e-01  -9.8059390323220110e-03 1.2687934670467813e-02 2.9625145116796290e-02  -8.1814938163128539e-03 8.9899136499279105e-03 3.0340043583524781e-02  1.0755683350108444e-03 -4.5716398263501975e-04 1.5146702956768199e-01  7.9516002286845978e-04 -9.6291179547566494e-04 1.5137161950651201e-01  -8.2807637831035187e-04 -2.1972421056778806e-04 1.7709428706586172e-01  -2.5705298732539269e-04 -4.3460281546526278e-04 1.4377860136620368e-01  -9.5009598678383531e-05 -1.9673247265127175e-03 1.5423932970921786e-01  2.1115782465814100e-03 -8.2414020092010237e-03 1.6513844118983020e-01  7.6308913683738539e-03 -9.0088146984128765e-03 1.2894624484816669e-01  1.7906227023640586e-03 -1.4101303076569432e-02 1.4332984386931674e-01  2.1810731180709865e-03 -7.6712246168589389e-03 1.4282823469073899e-01  1.4949192957037163e-02 -1.1697187893856200e-02 1.3803096638992413e-01  7.6542014141492648e-04 -4.0169084038674807e-03 1.7156919037639703e-01  6.3374558567125148e-03 -6.8648437121316044e-03 1.5625673469432413e-01  -3.1516248501510967e-03 -8.4773295196673339e-03 1.5330934100637686e-01  -1.8284213179103614e-03 -4.5619928747457211e-03 1.6558167250177463e-01  3.5582114843881710e-04 -4.7040544903717980e-04 1.5425608159781018e-01  9.9686995356464093e-04 3.0523050967040980e-04 8.1243810477997044e-02  -9.1041608921521838e-04 -8.6940861515731648e-04 1.3713955092821192e-01  2.0330127476087972e-03 -9.3066750198022730e-03 1.4952753673632410e-01  4.2097295597823626e-03 -2.9420265548890483e-03 1.7297313599943695e-01  -1.1195937410848509e-03 -3.8572858467411123e-03 1.9069755161623025e-01  5.9756465981842194e-03 4.3856663645986543e-04 1.7084988222411895e-01  -7.8879621199001812e-05 -6.5959721860806356e-04 1.7596182432643545e-01  6.9498821446516677e-04 4.8966271570650543e-04 1.8888161153366101e-01  -4.0622168227077987e-04 -2.1607079025062940e-05 1.7748619084947560e-02  2.2564448456625663e-03 1.5910936242124430e-03 6.2300730950989980e-02  -3.4622125867227643e-04 1.2796580605682257e-03 9.2067848704979069e-02  -3.2794381999495315e-04 3.2875445515215902e-04 6.9492812831101300e-02  3.9849713296669206e-04 -9.4869318204649097e-04 1.7122981496270970e-01  2.3845389623645762e-04 -1.4467971088102261e-03 1.5698229680539608e-01  -4.7177340131550159e-04 -4.5406164608388910e-05 1.7928109092746673e-02  -5.1445067142484211e-04 1.0732076076278458e-04 1.7737493667107782e-02  4.6562711788982565e-05 -1.1094082389208589e-03 1.8299237861197365e-01  -1.0968999883791185e-03 4.8106203050108150e-05 2.0230492851522119e-02  -2.6675244062706587e-03 3.1382057072965771e-05 2.2782859655281294e-02  -1.0132078910913092e-03 -1.5050524097640339e-03 2.2353452097469920e-02  -2.6876974512999446e-03 -3.3878236666300557e-03 7.2890548872051625e-02  -2.0883221707137861e-04 -1.4564021295695372e-04 1.8066783748143564e-02  -7.5758353205365836e-05 -1.2196701511041541e-04 1.7783048098681847e-02  -1.3041807776918008e-04 -1.2078122249569999e-04 1.8334547793698704e-02  -2.4650543625411693e-03 1.0504310850191527e-04 8.3664982262406068e-02  1.2995820179234818e-05 1.1792990308800707e-04 1.5251396651238150e-01  -2.2960602546682422e-04 -5.2935532769288749e-04 1.7342391850146771e-01  -1.0271375264821457e-03 -2.7046188813346765e-04 1.6995762759462610e-01  -1.1386230012881877e-04 -3.5045532403696274e-04 1.5564022801457758e-01  4.0077406599495171e-05 -4.5447694368413099e-04 1.2831804178848907e-01  -1.2688091901594990e-05 -5.1840802757747247e-04 1.7133234901322761e-01  8.9321456812850795e-06 -4.5647821861142537e-04 1.6245220933061877e-01  -5.4516529123260413e-04 3.0160164387785422e-04 1.2650456237733002e-01  5.6165518068129468e-04 1.3970296769180088e-03 8.6603417523771486e-02  -6.0596514456129702e-03 -1.3533120229826865e-02 1.3375000159088202e-01  1.9483598849370381e-03 -8.4568906656437536e-03 9.6876106148440569e-02  -9.5592161704856349e-03 -1.0106162787877361e-02 1.4426449737173244e-01  -3.2002979503874610e-03 -2.6136932604829406e-03 1.5903856545615444e-01  -3.1723403942533063e-03 -3.6675672786643312e-03 9.2140827274731871e-02  -4.3669876840898292e-03 -5.0501018803685580e-03 9.2246309236865817e-02  -5.4079391785646375e-03 -7.6373465940446309e-03 1.2089489860514280e-01  -2.2388932378167095e-03 -9.0544888442933274e-03 8.6675394420784965e-02  -1.1333778507738113e-03 -3.0129376167981822e-03 1.4261045857041102e-01  -7.3716386209915377e-04 -3.6321405529361663e-03 1.0398831840440903e-01  -6.9339204892959628e-03 -1.4826949171128151e-02 1.4143344253485177e-01  -5.9579851666427507e-03 -3.5462420412913833e-03 1.2171307094919338e-01  2.9530198410848300e-04 -1.3272880383019030e-04 1.6559430006076209e-01  2.4253300226502266e-04 -1.0537063267576626e-04 1.4864743652459403e-01  2.1389292553273271e-04 1.3365600847826242e-03 1.4296904746978892e-01  7.3291484973788659e-06 1.8867832117641992e-04 1.1901270169001460e-01  -2.5445146891712204e-03 -2.2086753905815018e-03 2.4507831666920558e-02  2.6049244161445742e-05 4.3657325937403987e-04 1.8358770450211354e-01  1.1805184435750615e-04 -2.7632666553047890e-05 1.4872013229666012e-01  1.8487359484992572e-04 -3.8856139240555406e-04 1.8160761671877867e-01  2.6462434199194630e-04 4.8196672246347144e-04 1.6933024508527647e-01  1.4113382412612137e-04 -1.3223778428907070e-04 1.4278032302900351e-01  3.2075459585129823e-04 1.5402003273763713e-03 1.9507188065070818e-02  8.2376793386843624e-04 1.1909002087069909e-02 9.0107924941305512e-02  -2.6252173700293349e-03 1.0071853200675947e-02 7.8879984620089022e-02  -3.4365470598708772e-03 5.2584223277887306e-03 8.6502795629518250e-02  -8.2972912027494351e-04 4.8005986215319020e-03 1.4098441647524185e-01  3.9453009920054957e-03 7.8088715937985054e-03 1.3245075865545350e-01  1.9667961652014172e-06 5.0024008264705220e-03 8.9239592224188327e-02  7.7962477640160892e-03 -9.2245655082703760e-03 1.2492370947045824e-01  6.9437530935253216e-03 1.0401485549647316e-03 1.4807732446458741e-01  4.7911641566255056e-03 6.0821152622416862e-04 1.0870643574345572e-01  3.5914675524941226e-03 -4.0016085800787153e-03 1.3740666575493152e-01  1.0312013375325701e-02 1.1882622694977772e-03 9.2415803432548765e-02  1.3312153816927481e-02 -3.2944644731959624e-03 1.4391405132528914e-01  1.2657740081822494e-02 -8.9416776276337300e-03 9.4062668888084330e-02  5.5193039489299300e-03 -3.6950586397125375e-03 7.6519173879159935e-02  3.6017431394992118e-03 -1.8116243740615057e-03 1.2724866967922238e-01  1.0993265177349268e-03 -7.2536561021503427e-04 1.5285097964583838e-01  -4.7079103049467756e-04 9.5875451739010887e-04 1.7139942858194774e-02  -5.2308628087832285e-04 8.1751372550044527e-04 1.7486497888458772e-02  -8.0773595549036756e-04 3.4959072329164434e-04 6.8568319106758910e-02  6.3041640209913325e-04 1.9103291731176824e-03 7.5068912615945088e-02  -6.1735298872382920e-04 -1.1364289982021048e-04 1.4719351710466722e-01  1.7016342108224518e-03 8.9018578545484910e-04 1.5588932387921875e-01  8.4001859986964202e-04 -1.8386764755958379e-03 1.8531670456932872e-01  1.0384350227013045e-03 1.5606502403073782e-03 1.7688261302795641e-01  7.2049439132401303e-04 1.6184187050491590e-03 1.6268186804824306e-01  -5.0031028303895871e-04 9.9490172345226562e-04 1.7391504581365999e-02  -3.5779035668708783e-04 8.8934320055987579e-04 1.7732673461518283e-02  -3.7894316619214644e-04 4.3696409560426029e-03 1.4138574369748821e-01  -1.8590412460925481e-03 1.6839250428188584e-03 1.7156816760909094e-01  -6.3512010145674066e-04 1.1239609543648643e-03 1.7573227386962334e-02  6.7531641529452636e-05 1.1653199981204794e-03 1.8199042936921761e-02  -3.3668706172710868e-04 1.1576053400045921e-03 1.6989311431547260e-02  2.4351172699777065e-03 -1.5451962435092731e-03 8.0935499765889513e-02  2.9588780993180753e-03 1.0527507808334000e-03 1.4636120348138276e-01  2.5253629440255784e-03 2.6357327736702897e-03 1.3375961332762687e-01  1.6424142313209323e-03 1.1724916941029919e-04 1.4801274540142392e-01  -7.5730619003237256e-04 1.1754416499282730e-03 9.4595647849583006e-02  1.1713299788572063e-03 -9.2543621591618561e-05 1.2979511976145658e-01  -3.1355748227456518e-04 -3.1955061791005736e-04 1.1943105183209485e-01  1.1420660879328868e-03 -6.7198258571899293e-07 1.3857646892898598e-01  -1.6662345274533980e-03 -3.6531584441244742e-04 6.5660757198415770e-02  1.0781090964611306e-03 -8.3403555675704347e-04 7.6825095244631200e-02  -6.3516566774521484e-04 1.4178188019980148e-03 1.2145089310563173e-01  3.2083871823661829e-04 2.3747995818199625e-04 1.2098149064943288e-01  7.5271862674754686e-04 8.3324025786237984e-04 1.0184411361036515e-01  -6.9344644655751179e-04 -9.2443898524440134e-04 6.1252689398946222e-02  4.6046398505006678e-04 1.1802176377319425e-03 8.5154165251786221e-02  1.1849409993231638e-04 -6.2338554825693807e-04 1.4801721602792084e-01  -2.4624956917571815e-04 -1.0873376401716603e-03 1.5204706360513909e-01  -1.2532039151281539e-04 6.6488636694902081e-04 1.0461567054165269e-01  -7.3587489376846914e-04 9.5538907906418105e-04 1.6264578686329700e-01  -5.8169080094370074e-04 -4.6686456684003400e-04 1.3457721184106014e-01  4.8932836056149704e-05 9.3480791688559518e-04 1.2726935709058368e-01  -1.6186343800587890e-04 1.7702668366187042e-03 1.6815783179876734e-01  -3.1108211153280839e-04 -1.6743849584868659e-03 1.7327602024647293e-01  2.4992156869238128e-04 -7.7128922801362726e-06 1.7738676599998459e-02  3.9141341838840846e-04 -2.5643184669277194e-04 1.7706233891848198e-02  1.1242884685334021e-04 -1.0127723854376848e-04 1.7552151336236256e-02  -2.5322651156460389e-04 7.0423781974722976e-04 7.7696627549570352e-02  1.4505390981077941e-03 6.7335568523238022e-04 2.5509815968830261e-02  -2.0054103222570048e-04 6.6654385030863559e-04 1.9875030656867489e-02  1.4861834471272758e-03 1.0091355242487052e-03 2.1719994928762976e-02  1.0927179309706879e-04 -6.5483740891088770e-04 2.2762353949245168e-02  8.3136136254495041e-04 7.4692590113299869e-04 1.6436760908449313e-01  -1.0207930719922520e-02 -5.8605665564727568e-04 1.4980452613029879e-01  -1.0332515344270161e-02 -2.4945740222490124e-03 8.8743573871232675e-02  -1.6192938431115526e-02 -8.2655006888247753e-03 1.0934781004968981e-01  -9.0079029156638502e-03 1.0133433065130247e-03 1.3880263334437112e-01  2.1195471518948477e-03 -1.7909910793297242e-03 1.2582047310700489e-01  4.6363222180116521e-03 -4.8825647857956593e-03 1.2849753875186898e-01  -1.3122350759651373e-04 6.1113473887025214e-04 1.8657626249833206e-02  -1.1602705482546370e-04 5.5722638454208835e-04 1.9128015060136883e-02  -6.0243092335214934e-04 3.9352605837354493e-04 7.8803850727234143e-02  -5.4786089200922023e-04 5.8743491302380994e-04 8.9286838033817234e-02  1.5319077421034161e-03 -2.7783567050577180e-03 8.2713629026597651e-02  -9.1249293147053383e-04 -1.0402262900971180e-03 1.4847171399718637e-01  -3.7812117420419258e-03 -2.0566143592146550e-03 2.2031452839451855e-02  -1.1727678984223501e-03 4.0329631538211917e-04 1.8789117043075138e-02  -9.2767936161774838e-04 2.5897233657217860e-04 1.9449221619302064e-02  -1.5633288966787512e-04 -4.2885279083517086e-04 1.4447247610042560e-01  1.2290672507024174e-04 -5.0200257041514152e-05 1.3808431224194753e-01  -4.0493662624479124e-05 2.9224139531033958e-04 1.3922882034556128e-01  -2.5700406570333505e-04 2.8699045632731918e-04 1.0141349247005142e-01  -2.1644092097383830e-04 3.0089607382322806e-04 9.0765694892337920e-02  -5.4818259906588265e-04 -1.7388900056337854e-04 1.3611505405180410e-01  -9.7850066166985160e-05 -2.6712084648833757e-04 1.7116731940484436e-01  -1.9514507248939660e-04 1.7544094649424600e-04 1.4171427821144172e-01  -9.2559231946480827e-05 3.4004549325054006e-05 1.0755695053757569e-01  -1.0010281172887429e-04 1.0667351362859449e-04 1.6618298289926617e-01  -1.7217032299294395e-05 2.3075517570140020e-04 1.1039027378359761e-01  5.0239058396383098e-04 -1.2372888710261818e-04 1.7700431898315820e-02  4.3719678051255275e-04 5.6783842401013315e-06 1.7868128534239712e-02  -6.5295446117375332e-05 1.7044507927407382e-03 8.6583040260300628e-02  -6.3580805956876558e-04 2.2644016741731770e-03 6.1962336608783565e-02  -2.7346510313769204e-04 -1.8761315640150288e-04 1.5844870237783815e-01  3.3978819596393810e-05 -1.8690934763783488e-04 1.0511686210810697e-01  -2.0349428134840420e-05 -5.0435451217821449e-04 1.6979368633295447e-01  4.3910116568535612e-04 -2.4390913514495168e-04 1.7911457170761428e-02  3.9480915913523367e-04 -2.0459672583289336e-04 1.8201305981787017e-02  -4.5873072168060820e-04 -3.4779053274023539e-04 1.2082147469661800e-01  7.6292394095326646e-04 3.8239234057236920e-04 9.3107582774333869e-02  2.0857712437364481e-04 4.4916038942216071e-05 1.0943937667613073e-01  7.7995957559046124e-04 7.8081722563405002e-04 1.0304117067473556e-01  5.4004954093814521e-04 9.1270943650146740e-04 1.6710451101042059e-01  8.6866078030012947e-07 8.1228156319775526e-05 2.0000287130261470e-02  8.1454865290883649e-06 1.2460585242674002e-04 1.9990188422431006e-02  3.7753919320065687e-05 2.6471077500005955e-04 1.9635812826988595e-02  6.4901268168977849e-05 -2.5335570182430199e-04 9.0345488379477396e-02  6.6235727890639071e-05 9.8676852919429760e-05 1.7315910270515691e-01  1.8886674508414425e-04 -1.6435765826435303e-04 1.7530377265152924e-01  1.5055519978571484e-05 -1.0830255236875164e-03 1.4055160022399735e-01  -4.1525680172552443e-04 -1.8929006692059672e-04 1.5392576086736706e-01  -6.2021939112028078e-04 -2.5979653466374732e-04 1.6163629985411654e-01  -6.7508466995298627e-04 2.6538842934710895e-04 1.5132655320272637e-01  2.9284072703728584e-04 8.7848568255542931e-04 1.7410518853553301e-02  1.8915127216383894e-04 8.3167773341899346e-04 1.7644806134989734e-02  -9.5644181435199126e-04 -4.1472752312149853e-04 6.2927498745623742e-02  5.6392148005698678e-04 -8.4531402546324458e-04 8.4599198285646909e-02  5.5702838159410376e-05 -4.6361250834523686e-04 1.3601680363082563e-01  3.8645892643340433e-04 -8.4923281114927145e-04 1.4585299690800127e-01  -1.5854525074846001e-03 1.0077932516279191e-03 1.7258239718224294e-01  -3.2848932660063895e-04 1.3761078369522450e-03 1.5279697238434725e-01  -5.1152448618978644e-03 3.2575565162451040e-03 1.3135570412779027e-01  -5.5678891404822668e-03 3.7056897803126915e-03 1.3413155809900326e-01  -1.3451350290031562e-02 1.2192370987381299e-02 1.3335567927590783e-01  -4.9169254800022406e-05 -1.2337148431472791e-04 1.7918900360097673e-01  1.4650513862746282e-04 -2.9134634658478626e-04 1.6685268554622604e-01  2.4975664027827963e-04 -3.3360986413442229e-04 1.5285358970482218e-01  -3.3460763123378221e-04 -2.8611595223328542e-04 1.8336891099644018e-01  7.1831023334945965e-05 -6.7151628573365195e-04 1.5879278227624335e-01  3.0147523761216128e-04 -3.0737611291679022e-04 1.6113757862846986e-01  1.5968706025549465e-04 -2.2576088571177303e-04 1.7721531395059606e-01  -8.9894520954047713e-05 1.6247751649835596e-05 1.4984502513116993e-01  -1.4792969293391209e-04 -9.8593127966094585e-05 1.5182431000103794e-01  6.5644172825330999e-04 -6.8351670737497907e-06 8.3054687699971763e-02  2.7511562507531501e-04 -3.7155397622503305e-04 1.1430385775132595e-01  7.4499842430885636e-05 -3.1063430481273767e-04 1.1889602778888413e-01  3.0758142408505155e-04 1.3598073191215825e-04 6.9177816162794267e-02  -1.4386728876453082e-05 -3.3319802257207533e-04 8.8092558106446603e-02  7.6882491488081692e-05 -6.6224059484172614e-04 1.1433105086574472e-01  -1.1653119672768533e-04 4.3001439209450269e-04 8.8055974538383902e-02  -9.4450897682202557e-05 -4.6936479837650878e-04 8.2130202696822113e-02  8.5257632934507607e-03 -7.1640803166828845e-03 7.7920264380752918e-02  8.2362414978806309e-03 -6.3081251042486543e-03 8.7769667976843546e-02  2.8705423136719832e-03 -3.5199885939671337e-03 6.7220388571740355e-02  1.3179879634749482e-02 -1.5457681298074002e-02 1.2593550463466979e-01  -1.8505420774024724e-02 -9.9997009989821837e-03 1.3005455925697754e-01  -1.2330144182814272e-02 -2.1725730028311033e-02 1.2759933595233369e-01  -2.7200855789131367e-04 1.4662568136147283e-04 1.9324312980589679e-02  -1.6387257555958532e-03 6.4667777007651093e-04 1.9799576035949621e-02  -2.4877055261551297e-04 6.6303450073864463e-06 1.8105369701692645e-02  -3.7796435095558199e-03 4.4788469097981499e-03 7.7978574831556874e-02  2.3672318378365172e-03 -1.7608153736699592e-02 1.2584516356008427e-01  1.0364821910072192e-03 -2.9304467460887981e-02 1.2000588364802130e-01  -8.4966323460784472e-04 -1.4547828234302944e-02 9.9903553769877695e-02  -8.9826600863037887e-03 -7.8753487758544041e-03 7.7131662801045719e-02  1.1220063637406586e-02 6.4250093396735451e-03 1.3816943173586066e-01  1.5379327231050349e-02 1.0486843195806436e-02 1.3012584257465640e-01  1.7411830500124219e-02 8.9782044209608218e-03 1.0957812750493941e-01  6.7868331656969760e-03 4.5533685501534206e-03 1.0653873851416808e-01  1.6226160781816914e-05 8.0374189480146905e-05 2.0057492070633322e-02  -1.5537833432005901e-05 8.5438678706512884e-05 2.0049162025451893e-02  5.9512359479696168e-05 -3.3722099202802743e-04 1.1008946947391753e-01  1.5815397237799747e-04 1.0054579960407633e-03 2.0790124546689760e-02  -1.8883509492287798e-03 1.8135208309016512e-03 2.1897753649323445e-02  -1.9151533090514398e-03 3.1106588904401627e-03 7.1217021247771642e-02  -9.4372215613691611e-05 4.1885472896953537e-04 1.7564578913137383e-01  