<?xml version="1.0"?>
<VTKFile type="UnstructuredGrid"  version="0.1"  >
<UnstructuredGrid>
<Piece  NumberOfPoints="857" NumberOfCells="3763">
<Points>
<DataArray  type="Float64"  NumberOfComponents="3"  format="ascii">-0.0182597916573 0.126128911972 -0.119588643312  -0.0077641364187 0.0512270443141 -0.07050477713349999  -0.0237180162221 0.16240182519 -0.053058128804  -0.107877351344 0.105669431388 -0.0502408407629  -0.0444478429854 0.116080775857 -0.00235075876117  0.0393674038351 0.112876079977 -0.0491501875222  0.0248903874308 0.0489483103156 0.000152088920004  0.0314915925264 0.114928804338 0.0218031276017  -0.0657326281071 0.0685198307037 0.0497140102088  -0.0355357266963 0.164656624198 0.0508319064975  -0.010538729839 -0.0422629192472 -0.208358153701  -0.0239527057856 0.0135364839807 -0.242119863629  -0.0194642152637 -0.0775559768081 -0.263431429863  -0.08492307364939999 -0.0108216870576 -0.280446648598  -0.08293507993220001 -0.0361198186874 -0.159778758883  -0.0240796487778 -0.0824203491211 -0.148982465267  0.0430508553982 -0.121076337993 -0.234084427357  0.0307756774127 0.0324950888753 -0.198437720537  0.00352357281372 -0.00433266581967 -0.144715368748  -0.0456651262939 0.08372022956609999 0.342343091965  -0.116630032659 0.0117083769292 0.386158525944  -0.08223126828669999 0.0577075146139 0.289406776428  -0.0511222109199 0.00205342215486 0.300772219896  -0.0125984866172 0.0267426930368 0.351842552423  0.0303636882454 0.0561947338283 0.391145974398  -0.0524924062192 0.0543583929539 0.40361738205  -0.07944945245979999 0.130002260208 0.441037595272  -0.000730989675503 0.119443200529 0.385622620583  -0.078488714993 0.137875169516 0.332541137934  0.0142801422626 0.110509291291 0.27100610733  0.0224165506661 0.08303219079970001 0.331783413887  -0.0170432701707 0.161798536777 0.30022162199  0.000811119796708 -0.0515509881079 -0.08419398218390001  0.0888616070151 -0.015075173229 -0.0776951387525  -0.0989535748959 -0.0518730916083 -0.08125374466180001  -0.0433920919895 -0.09785594791170001 0.0106235472485  -0.0488061010838 0.0295096840709 -0.0131453983486  -0.25 0.25 0.5  -0.166666666667 0.25 0.5  -0.25 0.195066730511 0.445658150344  -0.19506166517 0.25 0.445542865294  -0.0213422998786 -0.126349791884 -0.045622177422  -0.117952652276 0.0158270020038 -0.16616243124  -0.0531469397247 0.0490713231266 -0.13630309701  0.0358348339796 -0.131537660956 -0.134171053767  0.0583617314696 -0.115307979286 -0.0462360456586  0.010585160926 -0.0606908276677 0.314250290394  0.078067921102 -0.133790805936 0.331458956003  0.0206208750606 -0.104583717883 0.36723652482  0.0300164371729 -0.13569638133 0.270959883928  0.0797956883907 -0.07311873137949999 0.388136893511  0.0291880238801 -0.0850581228733 0.220644980669  0.0788302049041 -0.07555303722620001 0.284453928471  -0.0465739220381 -0.108428947628 0.305151432753  -0.056692365557 -0.0812899768353 0.234353885055  0.10282895714 0.0630551427603 -0.0452189296484  0.178613707423 0.153893724084 -0.0703043565154  0.0750898644328 0.130835875869 -0.116260357201  0.0179002508521 -0.0400723591447 0.396018892527  0.07961820065980001 -0.020668130368 0.232235535979  -0.00726175494492 -0.022667773068 0.242156982422  0.0524490773678 0.0171752162278 0.310696065426  0.0103002395481 0.0813155695796 0.107229083776  0.00225681974553 -0.008687185123560001 0.0457225777209  0.177950121638 0.25 0.0405701099774  0.151375159621 0.202163234353 -0.00268407491967  0.13042794168 0.172564610839 0.0599601529539  0.184557154775 0.16295710206 -0.00737970136106  0.0827306732535 0.011830884032 0.0299163535237  0.106673434377 0.0676268041134 0.0663062110543  0.25 0.25 0  0.25 0.177947182503 0.0435581305687  0.0251978598535 -0.0201241951436 -0.0233656335622  -0.25 -0.25 0.25  -0.175495340629 -0.25 0.295351832328  -0.25 -0.175776260788 0.294629825204  -0.164853364229 -0.189889326692 0.246240898967  0.111295968676 0.25 -0.00354384794953  0.0417815256417 0.25 0.0264120515999  0.0577150444892 0.25 -0.0418173710713  0.035034801811 0.196921139956 -0.0497792549431  -0.115254960954 0.0352221727371 -0.0357825122774  0.0360979661345 0.0743419006467 -0.130612716079  0.08110298216340001 0.0143552683294 -0.135737240314  0.0281950440258 0.110801942647 -0.38559025526  -0.000352636008756 0.154027625918 -0.45018479228  0.0220217909664 0.07910815626379999 -0.445265561342  -0.041934799403 0.09297795593740001 -0.440330862999  -0.115356497467 0.128115877509 0.0303980205208  -0.08144567906859999 0.192924261093 -0.0396481454372  -0.0503155887127 -0.140062868595 0.370642662048  0.0181560348719 -0.191118896008 0.319997102022  -0.09442232549189999 -0.0766885429621 0.347179293633  -0.10306725651 -0.0245223585516 0.261891931295  -0.0371639840305 -0.192689821124 0.258922994137  -0.08778057992460001 -0.193450272083 0.293951839209  -0.116932563484 -0.137108251452 0.278956532478  -0.0434515699744 -0.19969072938 0.340430229902  -0.016621209681 -0.143479332328 0.208528921008  -0.0799133181572 -0.177766740322 0.206858798862  -0.0340202823281 -0.07231882214550001 0.405357718468  -0.153045728803 -0.0703692808747 0.28540495038  -0.0647673308849 -0.069349065423 -0.297796696424  -0.0468406006694 -0.118580199778 -0.331259429455  -0.0636249184608 -0.122360698879 -0.235275790095  -0.137311711907 -0.115820750594 -0.279358655214  -0.25 -0.25 0.333333333333  -0.00222280388698 -0.0275516584516 -0.327156513929  0.0233143884689 -0.124395690858 -0.330935031176  -0.00544846989214 -0.0444226972759 -0.392852008343  -0.07202984392639999 -0.0450558848679 -0.379192590714  -0.128861442208 -0.0482712239027 -0.325591087341  -0.0319190612757 0.25 0.27473160228  0.0259018652141 0.196524605155 0.343851953745  -0.0424101948738 0.196461260319 0.324036180973  -0.08801463991400001 0.193724930286 0.280150324106  -0.051391992718 0.129726842046 0.244459152222  0.0793330296874 0.131078347564 0.273738384247  0.0304427426308 0.197590425611 0.258007407188  0.139736711979 -0.103549621999 0.308288753033  0.117407329381 -0.00031748006586 0.284001767635  0.17845864594 0.0137020656839 0.2717012465  0.133446916938 -0.07468281686309999 0.252671837807  0.193237304688 0.0103836003691 0.32706490159  0.108656100929 -0.016409387812 0.370573759079  0.195593327284 -0.0705924406648 0.374003827572  0.204297035933 -0.0882691517472 0.283604085445  0.15987212956 -0.0232784096152 0.211559042335  0.103109702468 -0.0715631917119 0.185957938433  0.25 -0.177950121638 0.0405701099774  0.25 -0.111295968676 -0.00354384794953  0.168315500021 -0.181550845504 -0.0129796266556  0.203061833978 -0.0839376300573 0.0201103240252  -0.123973377049 0.0421161539853 0.0831994190812  0.10652089864 0.041568480432 0.133020982146  -0.00508088478819 0.00464248098433 0.118765294552  0.0384838804603 0.0542355030775 0.219570666552  0.0556482039392 0.09942726045850001 0.165778696537  0.25 -0.25 0  0.25 -0.17904445884 -0.0421267671166  0.0085972994566 0.139411628246 0.206887423992  -0.0427397117019 0.0734880268574 0.199836358428  0.25 -0.25 0.166666666667  0.177338154858 -0.25 0.209433902167  0.178222204231 -0.25 0.126578397361  0.180748909712 -0.154124230146 0.180074676871  0.118582360446 0.0498475395143 0.233844980597  0.113276541233 0.115120351315 0.208414897323  0.068451166153 0.123325429857 0.09300038218499999  0.08695217221980001 0.18308262527 0.11987875402  0.1366494596 0.0978636816144 0.125807240605  0.0170362386853 0.165571182966 0.116205818951  -0.075325883925 -0.13042730093 -0.120773427188  -0.191016584635 -0.1764793396 -0.0778442546725  -0.102759346366 -0.20253264904 -0.07015967369080001  -0.126150563359 -0.115044787526 -0.0573479756713  -0.138729035854 -0.104583211243 -0.134180948138  -0.147993162274 -0.138949289918 -0.203295826912  -0.180331096053 -0.192031860352 -0.160557568073  -0.194399222732 -0.0846866071224 -0.148938387632  -0.11259970814 -0.078034222126 -0.193649172783  0.0326924659312 -0.122268341482 0.0296003930271  0.0215157996863 -0.180560961366 -0.0757267251611  0.0956164896488 -0.0493310950696 -0.0164182558656  0.112129375339 -0.112067811191 -0.105549775064  0.127802968025 -0.106147237122 -0.0110959038138  -0.0854129120708 -0.015297700651 0.056893799454  -0.0204317308962 -0.0795602425933 0.117458000779  -0.178222204231 0.25 0.126578397361  -0.177947182503 0.25 0.0435581305687  -0.107976816083 0.25 0.0905854563709  -0.157577678561 0.178241759539 0.0969507619739  0.25 -0.25 0.333333333333  0.25 -0.25 0.25  0.175776260788 -0.25 0.294629825204  0.25 -0.175495340629 0.295351832328  0.0932372882962 -0.0430554822087 0.0724518448114  -0.044769000262 -0.00661279587075 0.403999477625  -0.194478780031 -0.0247275307775 0.332954645157  -0.173761367798 -0.0806607827544 0.396263659  -0.137637495995 0.00523930834606 0.315887242556  0.0864742994308 -0.139340251684 0.176064118743  0.105438224971 -0.136641919613 0.253711819649  0.0308670303835 -0.25 -0.136809572586  0.0367561832589 -0.25 -0.219583441074  0.0925811678171 -0.20055809617 -0.19996842742  0.0127155454829 -0.193433105946 -0.225977659225  0.0415658205748 -0.200880005956 0.196522325277  0.0373581312597 -0.119548290968 0.120048768818  -0.0954102815882 -0.25 0.346414074494  -0.101368582479 -0.25 0.251933327382  -0.0374909392175 -0.25 0.286229296012  0.0852289572358 0.109103307128 -0.27055695653  0.07707493752239999 0.127253636718 -0.199824258685  0.128097131848 0.07648140937090001 -0.209757223725  0.154867321253 0.13628205657 -0.212952241302  0.08678253740069999 0.189277544618 -0.274375885725  0.127699971199 0.0803090333939 -0.326344817877  0.0577741526067 0.0601542405784 -0.31936660409  0.0525139421225 0.129102528095 -0.326874881983  0.0251371748745 0.175572559237 -0.261228203773  0.0199144631624 0.0927290171385 -0.265960127115  -0.148952946067 -0.121583275497 -0.374568909407  -0.25 0.177950121638 0.0405701099774  -0.25 0.111295968676 -0.00354384794953  -0.175531774759 0.135734900832 0.0562076568604  -0.178730383515 0.191659659147 -0.00562386959791  -0.0244714934379 -0.108516678214 -0.387223660946  -0.09279609471560001 -0.170035287738 -0.445968538523  -0.0281062982976 -0.0
[...]
<PointData  Vectors="f_78"> 
<DataArray  type="Float64"  Name="f_78"  NumberOfComponents="3" format="ascii">-8.8440378350764613e-07 -2.0821558177053077e-05 -3.3182476812847615e-03  7.8547104831668007e-06 3.1397953016745060e-05 -3.0134332928936180e-03  4.9478008540311751e-05 1.8318529695064137e-04 -3.1343980790845558e-03  3.9805583953117682e-05 -7.2648208558104448e-05 -3.6812753749937556e-03  4.7564010621035190e-06 -5.2052718857111196e-05 -3.8108528724528964e-03  -9.1792619175148237e-05 -7.3386341509575751e-05 -5.0531638748990354e-03  2.5125186085068406e-05 -6.1910700701901268e-05 -3.6948090548368216e-03  8.9484397286646980e-05 3.5624519664010069e-05 -3.6513254177958109e-03  -5.0547371405995560e-05 -5.3128855415871963e-05 -3.0405211833522592e-03  -3.5829922124481596e-05 1.1238326341492390e-04 -4.0737446829250748e-03  3.0611897453674928e-05 9.2880201775445424e-05 -2.8084036281289058e-03  -2.6816027785610288e-05 -1.1016198347897628e-05 -3.4680911120007932e-03  -4.2728301982854387e-05 1.0943764690877334e-05 -3.7355516187403313e-03  -5.8199723477740535e-05 3.5626982424976698e-05 -4.3257830911551500e-03  -2.3297384227240665e-05 8.9771290281279365e-05 -2.4477905263073471e-03  -8.0382316526541581e-05 1.0887923349363579e-04 -2.4233942382512761e-03  4.8309538978011008e-06 1.2462197816323308e-04 -3.5760649106394739e-03  2.4643159433848706e-05 2.4859865623810573e-05 -2.7282617959834467e-03  -1.4581829483259135e-05 -3.9129351214616564e-05 -3.1140468331298942e-03  1.3235657798184571e-04 -1.5283016712475312e-04 -4.2043759900347640e-03  1.4221294370158567e-04 -1.5508011655912785e-05 -3.7322850335375587e-03  -1.5346884497634418e-05 6.5259179549660370e-05 -4.1705729687219898e-03  -1.1224019871209704e-04 -7.0895736956492743e-05 -3.8092242401392713e-03  1.3349301373722111e-05 2.2156813126381980e-04 -4.9306974458255513e-03  -1.6378200273509502e-06 1.0852221200982765e-04 -3.5271756698579057e-03  -3.5268959868074999e-05 2.1225597365129455e-04 -3.7668641205501484e-03  1.6509146370711272e-04 1.6384728267568010e-05 -4.2000390260652628e-03  2.2062564587626094e-05 9.8095641186487777e-05 -3.9101801897278863e-03  5.4650721126311124e-05 1.4944404216402375e-04 -3.7704841249577414e-03  -3.7174009987435067e-05 1.0390196942872755e-04 -4.2827551970631888e-03  -1.5628988518549572e-05 1.6797354117948488e-04 -3.6986181077081205e-03  -7.4280038547856151e-06 -6.8970681315951978e-05 -4.2709196413555656e-03  3.5638688385632968e-05 3.3758432316381605e-05 -3.5899194074023358e-03  -8.0297812729322169e-06 -1.7069988250531652e-05 -3.2773235191877652e-03  -1.3854310053838410e-05 5.6612112203106126e-05 -3.7825362453475534e-03  5.6827743635108173e-07 6.6257778946558798e-05 -4.3854664031799931e-03  2.4593921844646003e-06 1.4195253962628754e-05 -3.9599372006059487e-03  1.1534404452211015e-06 8.5126684565581072e-06 9.4976531170768248e-06  3.0147379766799504e-06 -5.5165796168119637e-06 8.9991443803522933e-06  -6.6586522187142703e-06 5.3342533741841581e-06 1.2212584984894170e-05  -1.6570341300710041e-06 -4.5280223241364763e-06 7.8664134966199794e-06  -1.5419901683865680e-06 3.8232579385804046e-05 -4.2939586750199805e-03  -8.5935117805332488e-05 -7.0099180145398525e-05 -4.6067500569211533e-03  1.9708554676353979e-06 7.2219000661223417e-05 -4.1314492336958454e-03  8.6884541532505054e-05 -5.5498298766668391e-05 -3.5163351851714509e-03  -7.4360228008719137e-05 3.7597596562579080e-05 -4.5954041559247627e-03  3.6546318680164430e-05 9.3919196077987539e-05 -3.7886992744471525e-03  -1.8463494278766004e-05 3.1576084574394814e-05 -4.4195630935793097e-03  -2.0469182461832977e-04 -2.3483969623956838e-05 -4.5929074072836402e-03  -6.5465050115525415e-05 -1.7733775307936773e-05 -3.1278083787711639e-03  9.0999731504568277e-05 -1.1895342084914691e-04 -4.4424210118471780e-03  -2.5251611262013332e-05 -7.2642471466407622e-05 -3.5285779741165259e-03  1.3759922513842230e-04 -6.0301329643123837e-05 -4.0338961266970993e-03  -9.7731964156249742e-05 -2.2332431245182757e-04 -3.1241056658615454e-03  5.4307171721206462e-05 1.0449013079275049e-04 -3.0502688533960601e-03  -2.1904231391053693e-05 -8.1269074942755693e-05 -3.9019427715049878e-03  -7.9018583460850863e-05 1.5676130288779199e-04 -2.8091140872203348e-03  1.1023428535338089e-04 -4.8540549795555429e-05 -4.3476691978888600e-03  6.1155472580559436e-05 -1.4052489927621374e-05 -4.5972026151630836e-03  6.3896290090477342e-07 -1.5467293097602483e-05 -5.3672089662730885e-03  -7.5904827071333604e-05 -1.5166978846157750e-04 -2.7950301775621191e-03  7.7480377981025667e-05 1.4884524333833574e-04 -3.7174893888574406e-03  -5.5031730675975232e-05 4.0465753271414672e-05 -3.7257757544235473e-03  2.4913992197033813e-05 -8.6930033704911162e-06 -3.5942984283175551e-03  -4.1797107105890454e-06 5.3453885212490470e-06 4.1804656247294765e-06  -2.9752797747713370e-04 1.4004826478339515e-04 -5.5438242918090892e-03  3.8532397216901052e-04 -2.7640138179235908e-04 -3.5004131495780465e-03  2.1623418168934767e-04 1.5724071420108112e-04 -4.0957742984585217e-03  1.7732765796467345e-05 -3.9321351934117718e-05 -3.5649750132098188e-03  4.1983438713510379e-05 1.3348341543928856e-05 -3.5436525599365156e-03  -1.4569353469997269e-05 -1.3982922238754190e-05 -1.2574416769476939e-06  2.5695000789573528e-06 -1.7044078288949320e-06 4.2227458640999894e-06  3.7319068192708472e-05 3.7705000043008632e-05 -3.9551512403322780e-03  1.3301552382202684e-05 1.6332602589599227e-05 -2.3328309244731821e-06  4.7535358899238271e-07 -5.4302342343398987e-06 2.9373191159941086e-06  -4.1749079841466576e-06 1.0448219461586534e-06 5.0499368901642239e-06  -9.5570876280559566e-06 -4.2736138722203825e-04 -4.4212475502136053e-03  -2.4471866537069708e-06 3.8891156697841487e-07 -1.4999796021542353e-06  -9.3106812654314767e-07 5.1866925925332742e-07 1.0895902264831595e-06  -2.1285461985115890e-06 5.8902025907617234e-06 -5.0315903105863410e-07  1.2861057799120484e-04 2.9280245660201856e-04 -4.6821346027842202e-03  -2.8816439766762499e-05 -7.1515565762825066e-05 -2.6119224978529243e-03  -2.5680692563492918e-05 -2.6748106605068159e-05 -4.3536933443836410e-03  -3.2867572061053586e-05 -1.1542202834638822e-04 -4.2808115725423788e-03  6.8860241891023218e-05 -6.1537902429399942e-05 -3.1193712987014548e-03  -5.7513796404883071e-05 -1.6833407827088778e-04 -3.1487665699596271e-03  -4.9848759783413357e-05 3.2655349162778278e-05 -2.9203834712456167e-03  1.4816771560128765e-05 -1.7056368202449291e-04 -3.1592538286833354e-03  -1.7337040426628966e-04 -5.0390067048287702e-06 -4.3798882002083492e-03  6.9006175050887451e-05 -2.0968386166259106e-04 -3.5774591288481603e-03  -1.1258025000035674e-04 -2.2006469759800772e-04 -3.3922381018593353e-03  -1.1950197388733659e-04 -1.4194646823027530e-04 -3.6657876935035335e-03  8.9008064311418914e-05 -3.0521417890247323e-05 -3.7030124410347828e-03  6.9083058012577044e-05 -1.3257915776271806e-04 -3.2198841991650322e-03  -4.4968201470524883e-06 -6.2347205799413086e-06 -3.2456017664468971e-03  2.4224456347136806e-04 -4.2161709697808908e-04 -5.4735538637136474e-03  3.2263806781425620e-04 2.3129406499724874e-04 -3.5672845699192593e-03  5.7416235587094233e-05 -4.2981953414184866e-04 -5.5388645797951452e-03  -1.2012254662680286e-04 4.0316045527015248e-05 -3.9403720798415710e-03  -1.0887789680311549e-04 3.0924785032214247e-04 -3.3466747708411986e-03  1.0585911171870036e-05 5.3242559875271764e-05 -4.4074573829910851e-03  5.5193556858976196e-06 -1.2564558423000974e-04 -3.4724901558051097e-03  -1.6216664501309611e-05 -1.2238670325071164e-05 -3.8700802659334234e-03  1.4589095052840645e-04 -5.1904109697531484e-05 -4.8426123582571102e-03  1.2621045314070438e-04 1.7872956381849542e-04 -4.4869073598913069e-03  -5.0428878523319710e-05 -1.2251673958094856e-05 -3.7594797001079035e-03  -2.6137563469397899e-06 -5.4782710997121616e-06 -3.7971357749280012e-06  1.6834457020123065e-05 3.6683476066382544e-05 -3.3047688136080828e-03  9.5160799248895681e-05 -4.1713698582596669e-05 -5.0903643531780233e-03  -6.6331772667856211e-06 2.6539282639212993e-05 -4.0864177664393158e-03  5.1207539779466885e-05 9.7369896330459161e-06 -3.8973580597208659e-03  1.5228787449712576e-04 2.0539984611367239e-04 -3.6222920332279946e-03  9.5460762280563659e-07 -7.8142404289063430e-07 8.2181593656651492e-07  -3.2414499564918626e-04 5.0063628782204294e-04 -4.7296841157397551e-03  -1.4388547335290945e-04 3.5520693461157509e-04 -4.3070006656635556e-03  2.1562059365837520e-04 -4.0487004216886952e-04 -3.4525171969040811e-03  -1.6628480527335368e-05 3.8633013363969387e-04 -4.5442380155289730e-03  9.2893898926529411e-05 2.5138284634035060e-05 -3.4240856088117617e-03  -3.3114641383618845e-05 2.9009705667905642e-04 -5.4390553391362988e-03  -4.0072889635786329e-05 -1.7856033640122393e-04 -2.7894595977465994e-03  -3.1830625158288586e-05 8.9844231033508380e-05 -3.0689488178323025e-03  5.3240132004578863e-05 1.7292332242010251e-04 -1.7162452367939065e-03  -9.7419629450866209e-05 -7.2903216549800352e-05 -2.4122296080185922e-03  2.7194812393986211e-04 -1.3740519919888860e-05 -2.9124413832862560e-03  1.0418888185891907e-04 5.7115607070292037e-05 -4.1854306327863862e-03  2.0890561213297509e-04 -6.8927749373354032e-05 -2.2371023538027878e-03  5.4198405371293657e-04 9.1188880408229022e-05 -7.3317903157057241e-03  3.2005373450987090e-05 -2.8736947623496403e-05 -2.9909304873991589e-03  3.3771676535904573e-04 1.9277434962982942e-04 -2.6362847441605769e-03  7.1788920988189486e-06 1.8820285562364954e-06 1.0806972910602983e-06  -2.6272846311000317e-06 2.0835729324822734e-06 3.8474253725151975e-06  -3.3817792962135439e-05 5.0415660932312438e-05 -3.9993898949821031e-03  -4.5831990193511355e-05 -3.1996248638127816e-04 -3.3484553361910439e-03  2.3993562615902399e-05 5.1105713810090125e-06 -3.3789453671903011e-03  -7.2439230017982026e-05 -1.0795828453430439e-04 -3.8828725111635588e-03  3.5619605066972678e-06 -2.5567449887341462e-05 -3.5213668992880032e-03  8.9205884492381718e-05 -9.2586344813406646e-06 -4.0824337032724532e-03  -1.1946343160099062e-04 -1.0123413299319981e-04 -3.1429426565579132e-03  1.6431773684752827e-07 8.8901008482535031e-07 4.3844882549629893e-06  5.7984800146159803e-06 1.9287975023368719e-06 -2.3452088616661397e-07  3.4429696573129670e-04 -9.3202643680505930e-05 -3.9160817126348783e-03  5.1075763835820035e-05 3.0733480395846962e-05 -3.6565867259112047e-03  1.8930850540099257e-06 -1.1042589160602537e-06 2.9823753280611705e-06  1.2840464582229417e-06 -7.7115232223981465e-06 -8.9770887750748916e-08  -2.4368875730490344e-06 -7.3292136793169083e-06 1.7189374721437755e-06  -2.2192224597428881e-04 7.0599337080622644e-06 -4.2712592620193831e-03  2.6261578710850198e-05 8.5588320655727198e-05 -3.4423540247295321e-03  4.9480229567538773e-05 -1.2299324125942046e-04 -2.3905815075647404e-03  -4.4522458241069715e-05 -4.4711857522776006e-05 -3.4056227184121189e-03  -1.2055157596997928e-04 -2.2158282082329277e-05 -3.2233820228886037e-03  -5.2455070579273964e-05 -3.7135966756096193e-05 -2.6989512862202959e-03  -2.0942660985399885e-05 -2.3404457866497782e-04 -3.2265778935652747e-03  1.0592700877568587e-04 1.0484519254402161e-04 -4.0851168494320297e-03  -3.3771630652476440e-04 3.0328035383753787e-05 -4.7664555231303396e-03  7.8601686819557514e-05 9.0301717650626765e-05 -4.7238408857820120e-03  9.1540794152099639e-06 1.3351498010094015e-04 -4.0879073013557806e-03  -9.0543652645474153e-05 1.3819487133980051e-04 -2.5582099254510575e-03  2.6079171336554238e-04 7.3675868771008775e-05 -4.4444109465629697e-03  -1.4283265182561669e-04 -1.3448135997517878e-04 -5.4486821138237506e-03  3.3087627721369442e-05 2.6666402383532489e-04 -3.8627395204865128e-03  -1.4422268347853467e-05 1.3686391973511417e-04 -3.5995701394715631e-03  -1.6738284503251176e-05 -4.3388725486070211e-05 -3.3721642311303388e-03  -1.3002014668796687e-04 5.9392948546529168e-05 -3.0510148578490872e-03  -9.6702663267468628e-05 5.4486992018064448e-05 -4.2903256514301774e-03  6.2374506041873128e-05 1.3792262508731406e-04 -3.0729843516715261e-03  2.5672947603989064e-04 -1.4311034919502193e-05 -3.9215117073831962e-03  1.7673162859352518e-05 6.7040026783099564e-05 -4.1968344044000794e-03  1.0763611184278331e-05 2.0135919335971072e-05 -3.4362040110944700e-03  1.0423014183122962e-06 9.0694442131208330e-07 -6.4621807011389603e-07  5.6607332120274397e-07 3.3287936303633773e-06 3.1921693879510009e-06  3.1663338481179913e-06 -2.9865490844747220e-06 -1.1824716969318855e-06  -6.1723865997964194e-05 -7.3481312287252112e-05 -2.3126234259027213e-03  5.0315113420611192e-06 -8.7338916952373551e-06 -2.0542172732626124e-06  -1.2150549982334106e-05 1.6461140606465128e-05 -3.6705934270688985e-06  -2.0965423116734958e-06 -2.8944597843037992e-06 4.0557151945382520e-06  3.6497062179387257e-07 1.5271742295713544e-06 6.9158038102005630e-06  -3.0681838779376786e-05 -1.7776519365664469e-05 -3.7238095222267295e-03  6.4909082810931396e-05 -3.4420613400157401e-05 -2.7237125356721196e-03  -4.1651724985767083e-04 4.4634306309929894e-05 -4.2066349024328983e-03  6.2934381411005350e-05 -1.0566511238568427e-04 -4.4297636358842391e-03  6.7997997767859497e-05 1.4025307740697196e-04 -3.5652613157012608e-03  -1.7910809697735064e-04 -8.4317643347104498e-05 -2.2377892917614353e-03  -9.7057225740240874e-05 -3.5118926394800773e-04 -2.6482929167511372e-03  8.0319563525985778e-08 4.5411057378055399e-07 -1.5222295227366173e-06  -3.6821203736479844e-06 -1.4896026559477550e-06 -3.0337256250502071e-07  4.4465097942504478e-05 1.2156711948263796e-04 -4.5870836366744758e-03  -1.0908199209641148e-06 2.7665063711762843e-04 -2.5114113233495332e-03  1.4295010709355782e-04 -2.3973802751239476e-04 -5.2896769598204506e-03  5.2505864870349362e-05 -1.1526437945855556e-05 -4.2839423612920768e-03  -1.1417106834951759e-07 1.1724548134061369e-06 2.6315297761342811e-06  -3.9779070530212924e-06 1.7263368831993191e-06 1.5264425652182866e-06  -5.6905264350237761e-07 -1.6768254329232130e-07 1.0162035329700420e-06  2.2385451471978692e-05 -1.9009497800287831e-04 -3.0679954101026719e-03  -1.8126821178404606e-04 -3.2166768677207819e-05 -3.5278782356654038e-03  -3.0486326417711527e-05 -1.3183823807639687e-04 -3.5204832820803257e-03  -1.5880550107162631e-04 -1.9802245917441478e-04 -2.6245207674475937e-03  1.2981736422373104e-04 -1.5375956227062023e-04 -2.2485143794466105e-03  4.4576245062437575e-05 -1.3113725172233127e-04 -4.6629060830640952e-03  8.7946965629715688e-05 -2.3747645637443629e-05 -3.9465718379384203e-03  8.4609590153626355e-05 3.7484418581030726e-05 -3.6315945747705854e-03  -1.7225683482507428e-04 4.2048387951532495e-07 -2.1626118039352726e-03  6.6146549120269722e-05 -5.7891582140898692e-06 -3.9380516688718326e-03  1.3315520434698506e-04 5.8923411442416614e-05 -4.4735915508330275e-03  -6.5181938947536363e-06 -7.8651754916810463e-07 3.4621456963680070e-06  4.2056463451439396e-06 5.5384950347919461e-06 1.9705450407377470e-06  1.7089165129082422e-04 8.8903440315298720e-05 -2.5638146513133077e-03  -8.1165650310778195e-05 1.7250435594251217e-04 -7.0978760374027141e-03  -2.1864533536509324e-05 5.9096546820619382e-05 -3.9043152500349608e-03  -1.2202876876939452e-04 1.2505120908261374e-04 -3.6883040542560266e-03  -3.2804798074020125e-05 3.9428520960896732e-05 -3.9324146721398693e-03  1.3838881589716442e-05 -1.9313065496213907e-05 -1.6203702066272792e-09  -4.3183068800375238e-06 -3.5273730109890855e-06 1.2703772405581398e-06  1.0403992898929098e-04 -1.2640876628754234e-04 -2.6170974156166592e-03  1.0901763308445127e-04 7.1916449457157602e-05 -3.5235602578318008e-03  -2.1842082166305774e-05 -1.1334926495565121e-04 -3.1417694589355128e-03  -1.7444217340571726e-05 6.7260602420663677e-05 -2.4628390415855142e-03  -1.2463356811832900e-05 -9.2515361336007777e-05 -4.4046415064457429e-03  2.0395880748825766e-06 -1.0229203766317146e-06 -6.4875581172940178e-06  -4.5796855940511027e-08 1.9975178958538204e-06 -2.2663612766303096e-06  1.6513336818167692e-06 2.2499474285457708e-06 1.3199683281390385e-06  8.5420079070224793e-05 1.0771118017003067e-04 -4.7749289244955889e-03  -1.0382703411986092e-05 2.8188393874310708e-05 -4.4522521617671364e-03  -1.0931546044317731e-05 4.0612573364198476e-05 -4.2217432042964565e-03  5.3704879565074548e-05 8.1465316611115912e-05 -4.2284590297401352e-03  -3.3409146152270013e-05 -9.4067821535925489e-06 -4.1952746886968050e-03  -8.8046090629323535e-05 -6.3383442932423648e-05 -3.2473962000007018e-03  -6.8676557523332857e-05 -2.4313001000676414e-06 -3.1651745154424042e-03  2.0698102117020886e-06 -6.1113375563947179e-06 4.7862899619022956e-06  -7.5836514859065506e-06 5.4146221684067509e-06 -9.6840010214876552e-07  -3.3398983308107724e-04 -1.2535921561012230e-04 -4.0810248778404530e-03  1.9645821499611910e-04 4.5685055132899548e-05 -3.6006551446952956e-03  9.2203339393622267e-05 -1.7706780474832430e-05 -2.6801708263886103e-03  1.4319716883611614e-04 -1.0169840425212096e-04 -2.9355324263216800e-03  -7.8494189724431706e-05 -2.1031429683123387e-04 -3.4522995844714203e-03  -1.6723822862112743e-05 -1.3173510967810453e-04 -3.4867727755757919e-03  -1.0429888839508589e-04 -1.5518708431237242e-04 -4.5150868012474241e-03  3.1895974696086489e-05 4.2604802804375595e-04 -3.9702703373839295e-03  -9.5970554184859059e-05 -2.6266024815991033e-04 -2.7219572765456610e-03  6.7693299980035553e-06 -3.1717859804424803e-05 -3.5782138756523811e-03  -3.9131305611423933e-05 6.1946666224577763e-05 -4.3324686346822763e-03  1.5180148784351944e-05 8.3533085564651611e-06 -4.2516072989070078e-03  -2.7786564025849776e-05 3.7573330988551286e-05 -3.2162411434825660e-03  -1.2246013375487493e-05 -3.4373873492459534e-05 -3.4112039957427532e-03  -6.6759439536262364e-06 -8.8279369999881427e-05 -4.3372184454777106e-03  3.0109350764841004e-05 1.3489603132053214e-05 -4.4097755491433344e-03  2.2175659955294261e-05 -3.9702623798144758e-05 -3.8323465512369015e-03  -1.2655736716417240e-05 1.0360541640617060e-05 -3.5092191942222091e-03  -5.3757273815263920e-05 3.5342198111082221e-05 -4.6648890946339111e-03  -5.1338948520912403e-05 -4.7113649359194177e-05 -3.6540576184807948e-03  -1.8522665611610646e-04 -7.2991389155554589e-05 -3.9640897301533810e-03  1.3378882146820758e-04 8.0411536372250732e-06 -4.6954749091959805e-03  3.2764912329367237e-04 -1.1621982791388348e-04 -4.7584174582123093e-03  8.1986349909802885e-05 8.0665552826263853e-05 -3.0772028584881372e-03  8.1888935764723222e-05 -7.0735359928305089e-05 -4.6961167784237683e-03  1.6768974329505114e-05 2.0558932211485061e-04 -2.7486916755147476e-03  1.9593339384952715e-04 4.5491548126389838e-04 -4.6445744891263595e-03  -1.0284640508173255e-04 -6.0358282383560085e-05 -2.0930115561347083e-03  1.9796283460009307e-04 -2.2355224456141383e-04 -6.6338307518533854e-03  1.5416414485223484e-04 1.3412701228616850e-04 -2.9066372074735532e-03  -2.0056948124029365e-04 -1.6423618188628344e-05 -3.1110423790248090e-03  1.7259608568236193e-04 1.2681471788668521e-04 -3.2934512964082124e-03  3.3497088920202004e-06 4.6695143779549669e-06 2.1737000163823658e-08  -2.3161703192183837e-06 -9.6051333280012684e-06 6.5723884746943564e-07  -1.1978664121771825e-06 1.1579910040734201e-06 2.4689872897055895e-07  -2.8988971031087901e-04 -3.6061716217978044e-04 -5.7464151769108258e-03  8.6239351301263143e-05 1.4400260666400116e-04 -3.1684518183581378e-03  1.9810158010474886e-04 2.9527261587771711e-04 -4.6644452585202240e-03  -3.4047518127145344e-04 6.8753963841001868e-05 -4.5438955390025848e-03  -4.6429504197905763e-05 -2.8465655962212180e-04 -5.0399308440775125e-03  1.0396810903738278e-04 -2.3417429403511548e-04 -3.7236480218086373e-03  -5.5168970576202312e-05 2.2968907607251546e-05 -2.4212884215812419e-03  -1.6424818489591052e-04 -1.6013970443154907e-04 -4.1760508885001612e-03  1.4066769607346363e-04 -1.0612005394933019e-04 -2.6720333027237656e-03  3.8416908293563473e-06 3.1423601645767088e-06 -6.1781506827539432e-06  1.1522652374730698e-06 -3.9756455692031700e-07 -3.7443686682033586e-06  8.2666637371282798e-05 1.3217389762470546e-04 -3.8750785186798748e-03  1.0580680598359291e-05 -8.1581178314278802e-06 -1.931