<?xml version="1.0"?>
<VTKFile type="UnstructuredGrid"  version="0.1"  >
<UnstructuredGrid>
<Piece  NumberOfPoints="857" NumberOfCells="3763">
<Points>
<DataArray  type="Float64"  NumberOfComponents="3"  format="ascii">-0.0182597916573 0.126128911972 -0.119588643312  -0.0077641364187 0.0512270443141 -0.07050477713349999  -0.0237180162221 0.16240182519 -0.053058128804  -0.107877351344 0.105669431388 -0.0502408407629  -0.0444478429854 0.116080775857 -0.00235075876117  0.0393674038351 0.112876079977 -0.0491501875222  0.0248903874308 0.0489483103156 0.000152088920004  0.0314915925264 0.114928804338 0.0218031276017  -0.0657326281071 0.0685198307037 0.0497140102088  -0.0355357266963 0.164656624198 0.0508319064975  -0.010538729839 -0.0422629192472 -0.208358153701  -0.0239527057856 0.0135364839807 -0.242119863629  -0.0194642152637 -0.0775559768081 -0.263431429863  -0.08492307364939999 -0.0108216870576 -0.280446648598  -0.08293507993220001 -0.0361198186874 -0.159778758883  -0.0240796487778 -0.0824203491211 -0.148982465267  0.0430508553982 -0.121076337993 -0.234084427357  0.0307756774127 0.0324950888753 -0.198437720537  0.00352357281372 -0.00433266581967 -0.144715368748  -0.0456651262939 0.08372022956609999 0.342343091965  -0.116630032659 0.0117083769292 0.386158525944  -0.08223126828669999 0.0577075146139 0.289406776428  -0.0511222109199 0.00205342215486 0.300772219896  -0.0125984866172 0.0267426930368 0.351842552423  0.0303636882454 0.0561947338283 0.391145974398  -0.0524924062192 0.0543583929539 0.40361738205  -0.07944945245979999 0.130002260208 0.441037595272  -0.000730989675503 0.119443200529 0.385622620583  -0.078488714993 0.137875169516 0.332541137934  0.0142801422626 0.110509291291 0.27100610733  0.0224165506661 0.08303219079970001 0.331783413887  -0.0170432701707 0.161798536777 0.30022162199  0.000811119796708 -0.0515509881079 -0.08419398218390001  0.0888616070151 -0.015075173229 -0.0776951387525  -0.0989535748959 -0.0518730916083 -0.08125374466180001  -0.0433920919895 -0.09785594791170001 0.0106235472485  -0.0488061010838 0.0295096840709 -0.0131453983486  -0.25 0.25 0.5  -0.166666666667 0.25 0.5  -0.25 0.195066730511 0.445658150344  -0.19506166517 0.25 0.445542865294  -0.0213422998786 -0.126349791884 -0.045622177422  -0.117952652276 0.0158270020038 -0.16616243124  -0.0531469397247 0.0490713231266 -0.13630309701  0.0358348339796 -0.131537660956 -0.134171053767  0.0583617314696 -0.115307979286 -0.0462360456586  0.010585160926 -0.0606908276677 0.314250290394  0.078067921102 -0.133790805936 0.331458956003  0.0206208750606 -0.104583717883 0.36723652482  0.0300164371729 -0.13569638133 0.270959883928  0.0797956883907 -0.07311873137949999 0.388136893511  0.0291880238801 -0.0850581228733 0.220644980669  0.0788302049041 -0.07555303722620001 0.284453928471  -0.0465739220381 -0.108428947628 0.305151432753  -0.056692365557 -0.0812899768353 0.234353885055  0.10282895714 0.0630551427603 -0.0452189296484  0.178613707423 0.153893724084 -0.0703043565154  0.0750898644328 0.130835875869 -0.116260357201  0.0179002508521 -0.0400723591447 0.396018892527  0.07961820065980001 -0.020668130368 0.232235535979  -0.00726175494492 -0.022667773068 0.242156982422  0.0524490773678 0.0171752162278 0.310696065426  0.0103002395481 0.0813155695796 0.107229083776  0.00225681974553 -0.008687185123560001 0.0457225777209  0.177950121638 0.25 0.0405701099774  0.151375159621 0.202163234353 -0.00268407491967  0.13042794168 0.172564610839 0.0599601529539  0.184557154775 0.16295710206 -0.00737970136106  0.0827306732535 0.011830884032 0.0299163535237  0.106673434377 0.0676268041134 0.0663062110543  0.25 0.25 0  0.25 0.177947182503 0.0435581305687  0.0251978598535 -0.0201241951436 -0.0233656335622  -0.25 -0.25 0.25  -0.175495340629 -0.25 0.295351832328  -0.25 -0.175776260788 0.294629825204  -0.164853364229 -0.189889326692 0.246240898967  0.111295968676 0.25 -0.00354384794953  0.0417815256417 0.25 0.0264120515999  0.0577150444892 0.25 -0.0418173710713  0.035034801811 0.196921139956 -0.0497792549431  -0.115254960954 0.0352221727371 -0.0357825122774  0.0360979661345 0.0743419006467 -0.130612716079  0.08110298216340001 0.0143552683294 -0.135737240314  0.0281950440258 0.110801942647 -0.38559025526  -0.000352636008756 0.154027625918 -0.45018479228  0.0220217909664 0.07910815626379999 -0.445265561342  -0.041934799403 0.09297795593740001 -0.440330862999  -0.115356497467 0.128115877509 0.0303980205208  -0.08144567906859999 0.192924261093 -0.0396481454372  -0.0503155887127 -0.140062868595 0.370642662048  0.0181560348719 -0.191118896008 0.319997102022  -0.09442232549189999 -0.0766885429621 0.347179293633  -0.10306725651 -0.0245223585516 0.261891931295  -0.0371639840305 -0.192689821124 0.258922994137  -0.08778057992460001 -0.193450272083 0.293951839209  -0.116932563484 -0.137108251452 0.278956532478  -0.0434515699744 -0.19969072938 0.340430229902  -0.016621209681 -0.143479332328 0.208528921008  -0.0799133181572 -0.177766740322 0.206858798862  -0.0340202823281 -0.07231882214550001 0.405357718468  -0.153045728803 -0.0703692808747 0.28540495038  -0.0647673308849 -0.069349065423 -0.297796696424  -0.0468406006694 -0.118580199778 -0.331259429455  -0.0636249184608 -0.122360698879 -0.235275790095  -0.137311711907 -0.115820750594 -0.279358655214  -0.25 -0.25 0.333333333333  -0.00222280388698 -0.0275516584516 -0.327156513929  0.0233143884689 -0.124395690858 -0.330935031176  -0.00544846989214 -0.0444226972759 -0.392852008343  -0.07202984392639999 -0.0450558848679 -0.379192590714  -0.128861442208 -0.0482712239027 -0.325591087341  -0.0319190612757 0.25 0.27473160228  0.0259018652141 0.196524605155 0.343851953745  -0.0424101948738 0.196461260319 0.324036180973  -0.08801463991400001 0.193724930286 0.280150324106  -0.051391992718 0.129726842046 0.244459152222  0.0793330296874 0.131078347564 0.273738384247  0.0304427426308 0.197590425611 0.258007407188  0.139736711979 -0.103549621999 0.308288753033  0.117407329381 -0.00031748006586 0.284001767635  0.17845864594 0.0137020656839 0.2717012465  0.133446916938 -0.07468281686309999 0.252671837807  0.193237304688 0.0103836003691 0.32706490159  0.108656100929 -0.016409387812 0.370573759079  0.195593327284 -0.0705924406648 0.374003827572  0.204297035933 -0.0882691517472 0.283604085445  0.15987212956 -0.0232784096152 0.211559042335  0.103109702468 -0.0715631917119 0.185957938433  0.25 -0.177950121638 0.0405701099774  0.25 -0.111295968676 -0.00354384794953  0.168315500021 -0.181550845504 -0.0129796266556  0.203061833978 -0.0839376300573 0.0201103240252  -0.123973377049 0.0421161539853 0.0831994190812  0.10652089864 0.041568480432 0.133020982146  -0.00508088478819 0.00464248098433 0.118765294552  0.0384838804603 0.0542355030775 0.219570666552  0.0556482039392 0.09942726045850001 0.165778696537  0.25 -0.25 0  0.25 -0.17904445884 -0.0421267671166  0.0085972994566 0.139411628246 0.206887423992  -0.0427397117019 0.0734880268574 0.199836358428  0.25 -0.25 0.166666666667  0.177338154858 -0.25 0.209433902167  0.178222204231 -0.25 0.126578397361  0.180748909712 -0.154124230146 0.180074676871  0.118582360446 0.0498475395143 0.233844980597  0.113276541233 0.115120351315 0.208414897323  0.068451166153 0.123325429857 0.09300038218499999  0.08695217221980001 0.18308262527 0.11987875402  0.1366494596 0.0978636816144 0.125807240605  0.0170362386853 0.165571182966 0.116205818951  -0.075325883925 -0.13042730093 -0.120773427188  -0.191016584635 -0.1764793396 -0.0778442546725  -0.102759346366 -0.20253264904 -0.07015967369080001  -0.126150563359 -0.115044787526 -0.0573479756713  -0.138729035854 -0.104583211243 -0.134180948138  -0.147993162274 -0.138949289918 -0.203295826912  -0.180331096053 -0.192031860352 -0.160557568073  -0.194399222732 -0.0846866071224 -0.148938387632  -0.11259970814 -0.078034222126 -0.193649172783  0.0326924659312 -0.122268341482 0.0296003930271  0.0215157996863 -0.180560961366 -0.0757267251611  0.0956164896488 -0.0493310950696 -0.0164182558656  0.112129375339 -0.112067811191 -0.105549775064  0.127802968025 -0.106147237122 -0.0110959038138  -0.0854129120708 -0.015297700651 0.056893799454  -0.0204317308962 -0.0795602425933 0.117458000779  -0.178222204231 0.25 0.126578397361  -0.177947182503 0.25 0.0435581305687  -0.107976816083 0.25 0.0905854563709  -0.157577678561 0.178241759539 0.0969507619739  0.25 -0.25 0.333333333333  0.25 -0.25 0.25  0.175776260788 -0.25 0.294629825204  0.25 -0.175495340629 0.295351832328  0.0932372882962 -0.0430554822087 0.0724518448114  -0.044769000262 -0.00661279587075 0.403999477625  -0.194478780031 -0.0247275307775 0.332954645157  -0.173761367798 -0.0806607827544 0.396263659  -0.137637495995 0.00523930834606 0.315887242556  0.0864742994308 -0.139340251684 0.176064118743  0.105438224971 -0.136641919613 0.253711819649  0.0308670303835 -0.25 -0.136809572586  0.0367561832589 -0.25 -0.219583441074  0.0925811678171 -0.20055809617 -0.19996842742  0.0127155454829 -0.193433105946 -0.225977659225  0.0415658205748 -0.200880005956 0.196522325277  0.0373581312597 -0.119548290968 0.120048768818  -0.0954102815882 -0.25 0.346414074494  -0.101368582479 -0.25 0.251933327382  -0.0374909392175 -0.25 0.286229296012  0.0852289572358 0.109103307128 -0.27055695653  0.07707493752239999 0.127253636718 -0.199824258685  0.128097131848 0.07648140937090001 -0.209757223725  0.154867321253 0.13628205657 -0.212952241302  0.08678253740069999 0.189277544618 -0.274375885725  0.127699971199 0.0803090333939 -0.326344817877  0.0577741526067 0.0601542405784 -0.31936660409  0.0525139421225 0.129102528095 -0.326874881983  0.0251371748745 0.175572559237 -0.261228203773  0.0199144631624 0.0927290171385 -0.265960127115  -0.148952946067 -0.121583275497 -0.374568909407  -0.25 0.177950121638 0.0405701099774  -0.25 0.111295968676 -0.00354384794953  -0.175531774759 0.135734900832 0.0562076568604  -0.178730383515 0.191659659147 -0.00562386959791  -0.0244714934379 -0.108516678214 -0.387223660946  -0.09279609471560001 -0.170035287738 -0.445968538523  -0.0281062982976 -0.0
[...]
<PointData  Vectors="f_104"> 
<DataArray  type="Float64"  Name="f_104"  NumberOfComponents="3" format="ascii">7.3636298634580170e-05 1.7907007092109197e-03 1.4215093341219792e-01  1.3728897067953735e-03 9.7756461025129177e-04 1.6836432560893408e-01  -2.3897953167416070e-04 1.4581984762728278e-03 1.1709801598904777e-01  2.4145903548695029e-04 -1.0210258799783372e-03 1.3889458550874739e-01  -2.4778579140853625e-03 -6.9776664698482146e-05 1.4989294868366426e-01  -2.1651208789598905e-03 -3.4362456747716913e-03 1.5176466858157037e-01  1.2039645554458502e-03 -7.8478837610785007e-04 1.6894947355915094e-01  -1.7605670578740085e-03 -5.5548160613227830e-04 1.4885060955265028e-01  -1.6724232765406618e-03 -2.9723015465047396e-04 1.6248611978051899e-01  1.3824893864478703e-04 2.7517203761344678e-03 1.1851067957762017e-01  -2.2540976466634078e-03 1.0630126641259401e-04 1.6833378150415154e-01  5.2895599032781984e-05 3.0815229309801609e-04 1.6928754671807800e-01  2.8288194943723648e-04 5.8892253661863123e-04 1.5809463184569852e-01  1.7975242383863366e-04 2.4794641260591811e-05 1.5335121071283547e-01  1.0420243472088939e-03 1.7443006541230249e-03 1.5773408874151806e-01  -5.1318274518609257e-04 -1.3183718082816012e-03 1.6104847769898553e-01  -1.9557614675090094e-04 8.8712919312737722e-04 1.3468951053348041e-01  3.0983816009361881e-04 -2.0017616034619769e-03 1.6893711613749060e-01  -5.7500451732435767e-04 -9.2102327263113412e-04 1.7404631585328664e-01  -7.0970296042026431e-03 9.3835269780091612e-03 1.5158022328071383e-01  -1.7483690104516631e-02 1.4224717493769375e-03 1.4537369042590234e-01  -5.6093872390117379e-03 2.1471248704568835e-03 1.6099560538134758e-01  -9.0241943773976679e-03 -1.8557788100210431e-03 1.6945244912450588e-01  -6.9962468872126152e-03 1.8410828511092165e-03 1.5957858222906363e-01  4.7613135937810908e-03 8.2792507342105085e-03 1.4355639973804993e-01  -8.6352995727674593e-03 7.4681107534680848e-03 1.4233601035658097e-01  -1.4176277810887173e-02 2.5987765580297251e-02 1.2840884594821747e-01  -1.3498823372227206e-03 1.4487428631182268e-02 1.3577828723751426e-01  -3.0233642470163117e-03 5.9204340042351899e-03 1.2542462273977567e-01  2.6738426040983790e-03 4.6638579445277663e-03 1.4301355209743555e-01  -1.0461221067960050e-03 6.1333415647789758e-03 1.5197353207124678e-01  -1.3973372883074678e-03 2.8125792197413952e-03 1.2141985741918888e-01  -1.1326892374869211e-03 -6.2819730729778720e-04 1.6894283219565093e-01  -5.9164928880719756e-05 1.7649560684501043e-03 1.5589865190453203e-01  1.4988219230223953e-04 -1.6722848098017477e-04 1.4879317216793506e-01  3.7304264698977707e-03 -2.4923025779180446e-03 1.5758479558445765e-01  -2.4812799940731314e-03 3.8119252827849693e-03 1.7027252338891005e-01  -9.7172209811636732e-03 1.3279899344885410e-02 1.3717754259083842e-01  -8.9559231485125766e-03 9.7948316759616551e-03 1.3143672476903437e-01  -1.0417074984222837e-02 1.6734633458818315e-02 3.4861566126844781e-02  -7.8025607108151568e-03 1.2883925053376325e-02 3.4972242939921405e-02  2.9910773724742697e-03 -1.4609300006829856e-03 1.4701658748042665e-01  1.6106931398370938e-03 -2.1269195632259504e-03 1.3925080055067923e-01  -1.7572723109601739e-03 -1.0770255600218001e-03 1.6621338084409001e-01  -5.2358652052837478e-04 -1.4048772337693660e-03 1.3606481832830744e-01  -3.7810613440893709e-05 -4.8934929652345452e-03 1.5215452053190107e-01  5.0617028240637942e-03 -1.2067135016407807e-02 1.6028379483749508e-01  8.2687103412492236e-03 -7.7523840380842686e-03 1.2096011693560384e-01  -1.1561571260362610e-03 -1.5178480262705416e-02 1.3961049466500319e-01  3.0384707143314041e-03 -1.1055846932434360e-02 1.4507000649810606e-01  1.8205265868863899e-02 -1.2876382214089212e-02 1.3300459031619249e-01  1.6581760839996912e-03 -6.5053651993881413e-03 1.7158875465374995e-01  9.1556543298770797e-03 -9.9994810484791870e-03 1.5281010904979925e-01  -1.8076191302789492e-03 -1.0519092055072116e-02 1.5473850988821716e-01  1.3482326602480305e-04 -7.0279884975863963e-03 1.6249346340875950e-01  5.1654524399495725e-04 -1.4371255403635523e-03 1.4420921677161813e-01  1.9695712093595343e-03 5.4141301572143948e-04 8.3592810871881848e-02  -2.1845241535802199e-03 -2.5242911402384369e-03 1.3087290258608511e-01  1.3343382282851330e-03 -1.2712780831872956e-02 1.5218210328419451e-01  6.2022831094128341e-03 -7.0788318995711795e-03 1.7252857467056448e-01  -5.3662868608878034e-04 -9.1465447073039528e-03 1.9710388633251719e-01  7.8976742378438040e-03 -3.2997626397209615e-03 1.7089568512214512e-01  -6.8597897771779384e-05 -3.8586384909961983e-03 1.7122497115970403e-01  1.4296982985782514e-03 4.4714863695408059e-04 1.7748348049285384e-01  -1.2346129322055625e-03 7.6716490855307010e-04 2.7178340369070717e-02  4.5239486734671309e-03 3.2107341422774461e-03 6.3462617757338344e-02  -1.5611591992942939e-03 2.3561214177732007e-03 8.9735089593729694e-02  -1.2295228910045102e-03 1.5200784264877293e-03 6.7430216192356354e-02  9.5208496490750629e-04 -2.6518301119189346e-03 1.6050604400761304e-01  -3.9530786066384479e-04 -5.7013723276291613e-03 1.5556581207409412e-01  -1.1202469094508463e-03 7.5500349968447812e-04 2.7797104526029411e-02  -1.3319204742984101e-03 1.0590759209979878e-03 2.7080559531887399e-02  -1.0005390510773469e-05 -2.5870147871096144e-03 1.6615229487057342e-01  -2.1731745687856184e-03 2.2264809285380718e-03 2.5054552698533381e-02  -4.1658258159049675e-03 2.0969546542776206e-03 2.6385336770047303e-02  -2.4759314420007782e-03 6.8152104425545882e-04 2.6567190452711234e-02  -1.7478229865373286e-03 -3.5232828650274372e-03 7.5222026803987305e-02  -7.4308512342906243e-04 4.7926600969761771e-04 2.8465097352476945e-02  -5.0743655610166428e-04 5.8975758446011724e-04 2.7749792412807794e-02  -5.3637695032228482e-04 5.0153824312965274e-04 2.9109688943316264e-02  -5.5317310406289523e-03 7.5918825748342992e-04 7.9303731430032096e-02  -1.0449283601337062e-04 7.4870302148243823e-05 1.4186894313031312e-01  -4.1717744037314054e-04 -1.2975409568276436e-03 1.6329207217373093e-01  -2.4859482026623513e-03 -2.6971380066144061e-04 1.5592602472286546e-01  -1.0969302791355460e-05 -1.2478555115916382e-03 1.4370946588771455e-01  2.8539098163367452e-04 -2.0003162760167969e-03 1.2202604746648950e-01  2.5124974360611361e-05 -3.0506364124028096e-03 1.5903903449659992e-01  6.1972767679435942e-04 -2.4374235490877811e-03 1.5044497454055550e-01  -8.4186580376689431e-04 -7.9957273771836114e-05 1.2279811443356645e-01  1.7453725141645369e-03 3.1536241115025401e-03 8.6076678429692091e-02  -2.6846344932182770e-03 -1.1294812158571584e-02 1.4067296598894635e-01  3.1057773288776769e-03 -1.0285333741730221e-02 9.9320878581188890e-02  -8.6231897576508135e-03 -1.3002617385259983e-02 1.4124439405148562e-01  5.0630641264657574e-05 -6.1054811431620051e-03 1.5513730908271306e-01  -4.4832739235350118e-03 -1.6290563494418826e-03 9.0119828493032128e-02  -5.8125576528830587e-03 -4.3888636871544616e-03 9.9287453643188514e-02  -3.8307592642868329e-03 -1.0400332773078060e-02 1.1575849945688355e-01  4.4260889529927747e-04 -1.0547561081155453e-02 8.7242720739209398e-02  -5.8533231254799534e-04 -2.7115757787068116e-03 1.4588357149087189e-01  1.5980271800402793e-03 -5.5627502449367263e-03 1.0553373814266853e-01  -7.8662891423718056e-03 -1.9516156780771066e-02 1.4173676125424881e-01  -6.0137072045396726e-03 -3.7820160397889794e-03 1.1694109075584047e-01  4.8481407755104487e-04 -4.6331272184881305e-04 1.5212788722280426e-01  3.9222204643710401e-04 -2.4210687426772952e-04 1.3807086654988829e-01  7.2473410087472317e-05 3.2226033725770492e-03 1.3224673626338887e-01  -6.1676536283977252e-05 5.4062072774259157e-04 1.1344598688857892e-01  -5.3992114504256301e-03 -1.2374585497370979e-03 2.7867660624201384e-02  3.3384342866340304e-05 1.0086540877424753e-03 1.6674295303415540e-01  5.1264034781249221e-04 1.1442742684846905e-05 1.3927860008594797e-01  4.8941427553108848e-04 -1.6638517528834735e-03 1.6630529995526469e-01  5.7292246710876488e-04 2.7651368402317668e-04 1.5452090987461170e-01  5.1322982674013677e-04 -7.3608135922376659e-04 1.3366188527308140e-01  3.4429932879202492e-04 2.3138774961121147e-03 2.4643646605314814e-02  -1.0508720619016366e-03 1.6591648958381128e-02 8.9102811229252510e-02  -1.9657006470916714e-03 1.5049971072416018e-02 6.2624926458263008e-02  -3.2888482970238903e-03 7.2472342312023741e-03 8.3738641775947406e-02  1.7600982318175767e-03 4.6004078795120924e-03 1.3459368396787558e-01  2.2849500594908246e-03 1.0743415416806009e-02 1.2403017703429503e-01  -2.3253208917111442e-03 6.1550469929793879e-03 8.9850032190086693e-02  9.6233808641145308e-03 -1.3031048528642881e-02 1.2537868235607597e-01  6.4883347664838045e-03 2.8195465229452692e-03 1.3902787476151013e-01  4.6943306330223741e-03 -6.6533883574761534e-04 1.0783911892914891e-01  3.6952939721331293e-03 -5.4118861771897571e-03 1.3639494929187482e-01  1.2550593041053649e-02 1.5050137768768640e-03 8.9700837929507712e-02  1.3287010391344771e-02 -6.1088484460299700e-03 1.4359536913155335e-01  1.5814406791520741e-02 -1.3249320828043098e-02 1.0006658821811074e-01  7.6171671100273381e-03 -2.7086163473952164e-03 7.5441378540245907e-02  4.3649499453333176e-03 -4.3283665778134075e-03 1.2890842444026784e-01  -4.5888998582420886e-04 2.4055328875839403e-04 1.4589550145918426e-01  -1.4612666653652476e-03 3.1745451942510844e-03 2.4959753294314612e-02  -1.4016754213385771e-03 2.6766633382807057e-03 2.6302514253395408e-02  -2.4644868610527834e-03 1.7202290733335423e-03 6.5265060980564699e-02  1.9759446560586183e-04 5.3679638053724639e-03 7.3757540800807084e-02  -3.5521907002787330e-04 -7.8929067329356782e-04 1.3840351958215630e-01  1.7992630321280458e-03 7.6175198140552723e-04 1.4537336320284688e-01  2.4554739149474526e-03 -4.5820999951600109e-03 1.7170766583982311e-01  -1.2441769934763260e-04 -5.4188201151078997e-04 1.7166691807806767e-01  6.3970317325578335e-04 9.6717915169147674e-05 1.6137419634369596e-01  -1.5475118351045427e-03 3.0560328890770270e-03 2.5896279799163421e-02  -1.0449961951600685e-03 2.6945102540459013e-03 2.6874969350190885e-02  -1.1633621141317930e-03 5.6699317254000703e-03 1.3801762634810510e-01  -2.3783503729814877e-03 -1.2043614286805741e-04 1.6596779067304490e-01  -2.0584915964615351e-03 4.1350568335132105e-03 2.2498028491606422e-02  -1.8474382497825998e-03 4.4181013433032806e-03 2.2259879893466936e-02  -1.9565955482535491e-03 3.7733966438232491e-03 2.2819641415080024e-02  3.3134682898288089e-03 -1.4913876803093924e-03 8.2380098142548111e-02  1.2365966232423275e-03 -1.5042198441458460e-04 1.3768916584698970e-01  2.3417995188898567e-03 2.2848257080035042e-03 1.2999813209777505e-01  2.6977287994412193e-03 -2.6979588938885932e-03 1.4740420984454505e-01  -2.9978981394119374e-03 1.7167224093225209e-03 9.1757161203055007e-02  9.4629501162152849e-04 -1.6931631853777396e-03 1.2854283061848898e-01  -1.4051219550420618e-03 -1.8428237521321564e-03 1.1571025991517435e-01  2.7601204623258734e-03 -5.2729499597997469e-04 1.3324597960637533e-01  -3.8132428464172107e-03 -7.1621418134042983e-04 7.2118549757190245e-02  3.1541762722069521e-03 -2.1479727514624124e-03 8.2562524274274116e-02  -1.8575794872092467e-03 4.1334579610907540e-03 1.0929436759625588e-01  7.9883007313543406e-04 8.8488132721580102e-04 1.1320765447704220e-01  1.8938986082672445e-03 2.0521212424734108e-03 9.6906406617985150e-02  -2.0167498202063481e-03 -1.7422947728797564e-03 6.5454939612845431e-02  6.8615116979541739e-04 2.8485521990094802e-03 8.5574784264020681e-02  6.8397195986618200e-04 -1.7865008187108193e-03 1.4249857236818947e-01  -2.0503700391412172e-04 -2.5178674617827657e-03 1.4670056510524263e-01  -6.5927538429213324e-04 1.6033924234424993e-03 1.0130587726948512e-01  -1.9096968896659991e-03 2.5270822968785850e-03 1.5398302848244905e-01  -1.1158929251024049e-03 -9.7340305638947769e-04 1.2930234007953417e-01  -7.4310017596109287e-05 1.7524620382392670e-03 1.1896069573530121e-01  -3.1468809235697947e-05 4.1699440563610244e-03 1.5427829033319523e-01  -1.1149378737905236e-04 -2.6245729160170972e-03 1.6589746528529800e-01  7.8463559088103420e-04 6.4102042197616133e-04 2.5574939992973240e-02  8.1365617735690786e-04 1.6381690150149927e-04 2.7091444299423520e-02  5.8489342662443940e-04 5.4193969847397296e-04 2.6270537785148707e-02  4.4033704668209239e-04 7.8550753760747260e-04 7.6269111000252243e-02  -6.5122115937109217e-04 5.1248978499699744e-03 2.6772718070973849e-02  -2.1381609914982299e-03 4.4463539443492317e-03 2.2580976395488735e-02  -7.5666881354970585e-04 5.0909887686951876e-03 2.3781727097828585e-02  -1.8049195587347157e-03 3.8750389320631362e-03 2.4497674388797387e-02  7.0877922301851727e-04 1.1400715802627349e-03 1.5488413070160581e-01  -1.3368554843848060e-02 -1.6694882458076115e-03 1.5522569317531268e-01  -1.3006350389864692e-02 -5.3513965669981529e-03 8.4081002578099751e-02  -1.7369114329877876e-02 -3.3856516163120014e-03 1.0962231381428106e-01  -7.5567213493631597e-03 1.9298896944699275e-03 1.3886649190268716e-01  3.0773698764784731e-03 -1.3795619215803891e-03 1.1656339849171550e-01  6.0704366435995714e-03 -6.9460349345196199e-03 1.3031069098580134e-01  -5.9381042249423183e-04 1.7400907761630888e-03 2.9336501090554318e-02  -4.3420637087155598e-04 1.5134134620899077e-03 3.0314171367727221e-02  -1.5592896333400893e-03 6.9882181776518084e-04 8.1563878593565273e-02  -1.4205035990164619e-03 1.9549729217885432e-03 8.5123499826117027e-02  3.3742526712947341e-03 -4.1894986024031203e-03 8.2341322769840658e-02  -3.1102785762995174e-03 -3.2053200691582311e-04 1.3715332390708554e-01  -5.7041578926612813e-03 1.8171260762260260e-03 2.4445187275462438e-02  -2.4389015234119486e-03 3.1249576590997368e-03 2.3089587986466455e-02  -2.7886306670329912e-03 3.8410947215301622e-03 2.1917131487360773e-02  -1.8334927352539300e-04 -9.2512552658645375e-04 1.3467623945402379e-01  2.2136215592142428e-05 -2.3697677802695057e-05 1.3023475212303817e-01  -6.7949415941074372e-05 5.0860569566076649e-04 1.3297398263071564e-01  -8.9601885211729019e-04 6.7104333947095446e-04 9.9649733257119691e-02  -5.7382659484999548e-04 4.8898028429831446e-04 9.2249811239428173e-02  -1.5547063290324800e-03 -1.7654075085066220e-04 1.2730311066608421e-01  -3.2545225247176528e-04 -7.7875347837517506e-04 1.5792114653678344e-01  -2.2647987060945630e-04 4.1845590021009747e-04 1.3228311858597469e-01  -4.5523168492484612e-04 4.2452293099547438e-04 1.0137016929524559e-01  -2.7609657624790284e-04 -3.3856397389973842e-05 1.5437163870923473e-01  -9.0915292923713991e-05 6.1627095183069101e-04 1.0610077651195428e-01  9.7439689925853448e-04 2.5406677866248996e-04 2.7161515426516944e-02  6.7607741111648035e-04 4.8465228113171759e-04 2.7779126572530011e-02  3.7793458925746744e-04 2.9426018860894527e-03 8.2813970717162705e-02  -2.0840782375950028e-03 5.8781136152857372e-03 6.4822121065865893e-02  -3.3751736111211966e-04 -1.3115127860085331e-03 1.4797531723449028e-01  1.7298409439631305e-04 -7.5186211918625283e-04 1.0298292939180784e-01  3.8072766945450819e-04 -2.7286400015114213e-03 1.5605334600115858e-01  7.6426219997081132e-04 1.5015967765360933e-04 2.7903384591652560e-02  6.6509855941342610e-04 1.4000763169415270e-04 2.8807389692607252e-02  -1.4882072644907655e-03 -6.0142367455631989e-04 1.1530999193879812e-01  1.7963096233561094e-03 8.2101576340639390e-04 9.4610887681326639e-02  3.1766316816669003e-04 4.7452787898392160e-04 1.0349139005832236e-01  1.6416909324934710e-03 1.6420029462810256e-03 1.0126945510164498e-01  1.3014994157123151e-03 2.4317822315917553e-03 1.5330018712485749e-01  -6.8944769964698874e-05 2.5911257128641155e-04 3.2373489726672436e-02  -4.0104940814027562e-05 3.4446397772783401e-04 3.2249911071266811e-02  -9.6374590628348620e-05 7.4447984085675265e-04 3.1550304725786307e-02  1.7509404241382578e-04 -6.2270469761418904e-04 9.0522745859932738e-02  2.4194831225195858e-04 -4.3399388727805423e-04 1.6186448497677872e-01  8.2587027360119187e-04 -1.1246630852251589e-03 1.6532738643677289e-01  9.9584958562579600e-05 -2.6045657946334572e-03 1.3471555194699841e-01  -8.8683706684061650e-04 -4.4446627012556528e-04 1.4127259939269057e-01  -1.2625136467540152e-03 -6.5882949970385381e-04 1.5134792620951273e-01  -1.4825727197830610e-03 7.2251104808426856e-04 1.4314345994779695e-01  4.5887377609298887e-05 2.4812210864611078e-03 2.6134971880189324e-02  -1.2093202146722441e-04 2.2270456696295384e-03 2.7033600934267592e-02  -2.5935723861225104e-03 -1.0435852370397668e-04 6.4069538107694113e-02  1.2989571115541029e-03 -1.7411803840657715e-03 8.6616185837045209e-02  1.0145754027192600e-05 -7.3661596368026594e-04 1.2991208355891096e-01  9.7095407479671244e-04 -2.2846692757588611e-03 1.3885400255745656e-01  -3.3013577673948123e-04 1.6250840623483766e-03 1.6765272529254482e-01  2.5093337941210292e-03 6.0736102500816237e-04 1.4627597748252710e-01  -5.1008969315387764e-03 -1.1438157568787188e-03 1.3070934580513799e-01  -5.2149170540690256e-03 4.1488828829171660e-03 1.3433478504612084e-01  -1.6003398122245598e-02 1.0801278969879730e-02 1.4248734492165757e-01  1.6979025819464305e-05 -9.0299092999417910e-04 1.6383697106775780e-01  7.4571391181549687e-04 -1.8974574639336276e-03 1.5270206792697033e-01  7.5655851060054140e-04 -1.3659622411944135e-03 1.4268863318774458e-01  -8.7506101411412014e-04 -1.3702359707217962e-03 1.6637798846130758e-01  5.8125924683153751e-04 -2.6953598828295643e-03 1.4728622939787464e-01  5.1945139958145081e-04 -6.6033571270438332e-04 1.4837385742065817e-01  5.4576688522954249e-04 -1.0274678063558120e-03 1.6350202181683451e-01  -4.6545218539002950e-05 1.6846939634945825e-04 1.4023304800845982e-01  -4.1287549701849379e-04 -9.7119037072856832e-04 1.4163123394529203e-01  1.3263299557826817e-03 -7.6377995508188621e-04 8.5854245602527662e-02  4.8327566300670826e-04 -1.9776972808909030e-03 1.1133410942956277e-01  7.1477750749018786e-05 -1.5742019779100684e-03 1.1525900771662423e-01  7.1606506238478570e-04 5.8342567370416054e-04 7.2389272996553622e-02  -1.8510992677804857e-04 -9.3038754082069050e-04 8.8596895759284311e-02  2.3947272272647533e-04 -2.0134496883311235e-03 1.1303362297274520e-01  -2.1431479198457447e-04 1.1769319690537849e-03 8.7248756999840624e-02  -1.0405186163459519e-04 -9.8762573262531892e-04 8.2258999061834939e-02  1.0620305414938460e-02 -4.9346970361781109e-03 7.9976595875035847e-02  9.6514486448624585e-03 -5.6345936041344745e-03 8.7721257831718080e-02  2.5690995655057247e-03 -2.8934002940775088e-03 6.7146672825852141e-02  1.3171344194032873e-02 -1.9531920977266120e-02 1.2720898937482375e-01  -2.1014722307539490e-02 -1.6422727678297801e-02 1.3580254027065075e-01  -1.4372771736804877e-02 -3.1154621475374854e-02 1.3201898383227467e-01  5.1018884700019108e-04 1.0073347851377668e-03 2.5379740974406789e-02  -8.8880343107563826e-04 1.6359971079776612e-03 2.5009475780804358e-02  3.4572951604989110e-04 7.1501128409677008e-04 2.5103804700843932e-02  -4.8874368286072837e-03 6.6997070966576507e-03 8.2801115355741903e-02  2.3661079942321993e-03 -1.9303165047627333e-02 1.2327287070867005e-01  2.6450874377139072e-03 -4.0551091384629805e-02 1.3815979491032626e-01  -3.3334078379926228e-03 -1.5830825884804833e-02 1.0767948928237810e-01  -1.2653664482954708e-02 -7.8230315756514131e-03 6.6713570284920240e-02  1.2013526777474070e-02 6.3236201252649931e-03 1.3045422562609921e-01  1.8693840162858230e-02 4.5270078891522653e-03 1.3478413051682062e-01  2.1274745505026817e-02 9.7924182765276348e-03 1.1757851850857549e-01  6.9473439756560264e-03 3.4781765479703561e-03 1.0826601079332761e-01  -2.5369588309405102e-05 2.4228353105860137e-04 3.2444773248544348e-02  -8.7193276531258778e-05 2.5985678761211289e-04 3.2339805165518945e-02  2.2567788521225021e-04 -1.5131048233420496e-03 1.0618707203775168e-01  7.5954600814120965e-04 1.7936990737246691e-03 2.6105743997511151e-02  -1.1516756560673216e-03 2.8445974623860721e-03 2.6812056297546523e-02  -1.5526155492640494e-03 4.7939359324103000e-03 6.6633830677814282e-02  1.0556131281495230e-04 5.3758155462350248e-04 1.5925955030681629e-01  1