<?xml version="1.0"?>
<VTKFile type="UnstructuredGrid"  version="0.1"  >
<UnstructuredGrid>
<Piece  NumberOfPoints="857" NumberOfCells="3763">
<Points>
<DataArray  type="Float64"  NumberOfComponents="3"  format="ascii">-0.0182597916573 0.126128911972 -0.119588643312  -0.0077641364187 0.0512270443141 -0.07050477713349999  -0.0237180162221 0.16240182519 -0.053058128804  -0.107877351344 0.105669431388 -0.0502408407629  -0.0444478429854 0.116080775857 -0.00235075876117  0.0393674038351 0.112876079977 -0.0491501875222  0.0248903874308 0.0489483103156 0.000152088920004  0.0314915925264 0.114928804338 0.0218031276017  -0.0657326281071 0.0685198307037 0.0497140102088  -0.0355357266963 0.164656624198 0.0508319064975  -0.010538729839 -0.0422629192472 -0.208358153701  -0.0239527057856 0.0135364839807 -0.242119863629  -0.0194642152637 -0.0775559768081 -0.263431429863  -0.08492307364939999 -0.0108216870576 -0.280446648598  -0.08293507993220001 -0.0361198186874 -0.159778758883  -0.0240796487778 -0.0824203491211 -0.148982465267  0.0430508553982 -0.121076337993 -0.234084427357  0.0307756774127 0.0324950888753 -0.198437720537  0.00352357281372 -0.00433266581967 -0.144715368748  -0.0456651262939 0.08372022956609999 0.342343091965  -0.116630032659 0.0117083769292 0.386158525944  -0.08223126828669999 0.0577075146139 0.289406776428  -0.0511222109199 0.00205342215486 0.300772219896  -0.0125984866172 0.0267426930368 0.351842552423  0.0303636882454 0.0561947338283 0.391145974398  -0.0524924062192 0.0543583929539 0.40361738205  -0.07944945245979999 0.130002260208 0.441037595272  -0.000730989675503 0.119443200529 0.385622620583  -0.078488714993 0.137875169516 0.332541137934  0.0142801422626 0.110509291291 0.27100610733  0.0224165506661 0.08303219079970001 0.331783413887  -0.0170432701707 0.161798536777 0.30022162199  0.000811119796708 -0.0515509881079 -0.08419398218390001  0.0888616070151 -0.015075173229 -0.0776951387525  -0.0989535748959 -0.0518730916083 -0.08125374466180001  -0.0433920919895 -0.09785594791170001 0.0106235472485  -0.0488061010838 0.0295096840709 -0.0131453983486  -0.25 0.25 0.5  -0.166666666667 0.25 0.5  -0.25 0.195066730511 0.445658150344  -0.19506166517 0.25 0.445542865294  -0.0213422998786 -0.126349791884 -0.045622177422  -0.117952652276 0.0158270020038 -0.16616243124  -0.0531469397247 0.0490713231266 -0.13630309701  0.0358348339796 -0.131537660956 -0.134171053767  0.0583617314696 -0.115307979286 -0.0462360456586  0.010585160926 -0.0606908276677 0.314250290394  0.078067921102 -0.133790805936 0.331458956003  0.0206208750606 -0.104583717883 0.36723652482  0.0300164371729 -0.13569638133 0.270959883928  0.0797956883907 -0.07311873137949999 0.388136893511  0.0291880238801 -0.0850581228733 0.220644980669  0.0788302049041 -0.07555303722620001 0.284453928471  -0.0465739220381 -0.108428947628 0.305151432753  -0.056692365557 -0.0812899768353 0.234353885055  0.10282895714 0.0630551427603 -0.0452189296484  0.178613707423 0.153893724084 -0.0703043565154  0.0750898644328 0.130835875869 -0.116260357201  0.0179002508521 -0.0400723591447 0.396018892527  0.07961820065980001 -0.020668130368 0.232235535979  -0.00726175494492 -0.022667773068 0.242156982422  0.0524490773678 0.0171752162278 0.310696065426  0.0103002395481 0.0813155695796 0.107229083776  0.00225681974553 -0.008687185123560001 0.0457225777209  0.177950121638 0.25 0.0405701099774  0.151375159621 0.202163234353 -0.00268407491967  0.13042794168 0.172564610839 0.0599601529539  0.184557154775 0.16295710206 -0.00737970136106  0.0827306732535 0.011830884032 0.0299163535237  0.106673434377 0.0676268041134 0.0663062110543  0.25 0.25 0  0.25 0.177947182503 0.0435581305687  0.0251978598535 -0.0201241951436 -0.0233656335622  -0.25 -0.25 0.25  -0.175495340629 -0.25 0.295351832328  -0.25 -0.175776260788 0.294629825204  -0.164853364229 -0.189889326692 0.246240898967  0.111295968676 0.25 -0.00354384794953  0.0417815256417 0.25 0.0264120515999  0.0577150444892 0.25 -0.0418173710713  0.035034801811 0.196921139956 -0.0497792549431  -0.115254960954 0.0352221727371 -0.0357825122774  0.0360979661345 0.0743419006467 -0.130612716079  0.08110298216340001 0.0143552683294 -0.135737240314  0.0281950440258 0.110801942647 -0.38559025526  -0.000352636008756 0.154027625918 -0.45018479228  0.0220217909664 0.07910815626379999 -0.445265561342  -0.041934799403 0.09297795593740001 -0.440330862999  -0.115356497467 0.128115877509 0.0303980205208  -0.08144567906859999 0.192924261093 -0.0396481454372  -0.0503155887127 -0.140062868595 0.370642662048  0.0181560348719 -0.191118896008 0.319997102022  -0.09442232549189999 -0.0766885429621 0.347179293633  -0.10306725651 -0.0245223585516 0.261891931295  -0.0371639840305 -0.192689821124 0.258922994137  -0.08778057992460001 -0.193450272083 0.293951839209  -0.116932563484 -0.137108251452 0.278956532478  -0.0434515699744 -0.19969072938 0.340430229902  -0.016621209681 -0.143479332328 0.208528921008  -0.0799133181572 -0.177766740322 0.206858798862  -0.0340202823281 -0.07231882214550001 0.405357718468  -0.153045728803 -0.0703692808747 0.28540495038  -0.0647673308849 -0.069349065423 -0.297796696424  -0.0468406006694 -0.118580199778 -0.331259429455  -0.0636249184608 -0.122360698879 -0.235275790095  -0.137311711907 -0.115820750594 -0.279358655214  -0.25 -0.25 0.333333333333  -0.00222280388698 -0.0275516584516 -0.327156513929  0.0233143884689 -0.124395690858 -0.330935031176  -0.00544846989214 -0.0444226972759 -0.392852008343  -0.07202984392639999 -0.0450558848679 -0.379192590714  -0.128861442208 -0.0482712239027 -0.325591087341  -0.0319190612757 0.25 0.27473160228  0.0259018652141 0.196524605155 0.343851953745  -0.0424101948738 0.196461260319 0.324036180973  -0.08801463991400001 0.193724930286 0.280150324106  -0.051391992718 0.129726842046 0.244459152222  0.0793330296874 0.131078347564 0.273738384247  0.0304427426308 0.197590425611 0.258007407188  0.139736711979 -0.103549621999 0.308288753033  0.117407329381 -0.00031748006586 0.284001767635  0.17845864594 0.0137020656839 0.2717012465  0.133446916938 -0.07468281686309999 0.252671837807  0.193237304688 0.0103836003691 0.32706490159  0.108656100929 -0.016409387812 0.370573759079  0.195593327284 -0.0705924406648 0.374003827572  0.204297035933 -0.0882691517472 0.283604085445  0.15987212956 -0.0232784096152 0.211559042335  0.103109702468 -0.0715631917119 0.185957938433  0.25 -0.177950121638 0.0405701099774  0.25 -0.111295968676 -0.00354384794953  0.168315500021 -0.181550845504 -0.0129796266556  0.203061833978 -0.0839376300573 0.0201103240252  -0.123973377049 0.0421161539853 0.0831994190812  0.10652089864 0.041568480432 0.133020982146  -0.00508088478819 0.00464248098433 0.118765294552  0.0384838804603 0.0542355030775 0.219570666552  0.0556482039392 0.09942726045850001 0.165778696537  0.25 -0.25 0  0.25 -0.17904445884 -0.0421267671166  0.0085972994566 0.139411628246 0.206887423992  -0.0427397117019 0.0734880268574 0.199836358428  0.25 -0.25 0.166666666667  0.177338154858 -0.25 0.209433902167  0.178222204231 -0.25 0.126578397361  0.180748909712 -0.154124230146 0.180074676871  0.118582360446 0.0498475395143 0.233844980597  0.113276541233 0.115120351315 0.208414897323  0.068451166153 0.123325429857 0.09300038218499999  0.08695217221980001 0.18308262527 0.11987875402  0.1366494596 0.0978636816144 0.125807240605  0.0170362386853 0.165571182966 0.116205818951  -0.075325883925 -0.13042730093 -0.120773427188  -0.191016584635 -0.1764793396 -0.0778442546725  -0.102759346366 -0.20253264904 -0.07015967369080001  -0.126150563359 -0.115044787526 -0.0573479756713  -0.138729035854 -0.104583211243 -0.134180948138  -0.147993162274 -0.138949289918 -0.203295826912  -0.180331096053 -0.192031860352 -0.160557568073  -0.194399222732 -0.0846866071224 -0.148938387632  -0.11259970814 -0.078034222126 -0.193649172783  0.0326924659312 -0.122268341482 0.0296003930271  0.0215157996863 -0.180560961366 -0.0757267251611  0.0956164896488 -0.0493310950696 -0.0164182558656  0.112129375339 -0.112067811191 -0.105549775064  0.127802968025 -0.106147237122 -0.0110959038138  -0.0854129120708 -0.015297700651 0.056893799454  -0.0204317308962 -0.0795602425933 0.117458000779  -0.178222204231 0.25 0.126578397361  -0.177947182503 0.25 0.0435581305687  -0.107976816083 0.25 0.0905854563709  -0.157577678561 0.178241759539 0.0969507619739  0.25 -0.25 0.333333333333  0.25 -0.25 0.25  0.175776260788 -0.25 0.294629825204  0.25 -0.175495340629 0.295351832328  0.0932372882962 -0.0430554822087 0.0724518448114  -0.044769000262 -0.00661279587075 0.403999477625  -0.194478780031 -0.0247275307775 0.332954645157  -0.173761367798 -0.0806607827544 0.396263659  -0.137637495995 0.00523930834606 0.315887242556  0.0864742994308 -0.139340251684 0.176064118743  0.105438224971 -0.136641919613 0.253711819649  0.0308670303835 -0.25 -0.136809572586  0.0367561832589 -0.25 -0.219583441074  0.0925811678171 -0.20055809617 -0.19996842742  0.0127155454829 -0.193433105946 -0.225977659225  0.0415658205748 -0.200880005956 0.196522325277  0.0373581312597 -0.119548290968 0.120048768818  -0.0954102815882 -0.25 0.346414074494  -0.101368582479 -0.25 0.251933327382  -0.0374909392175 -0.25 0.286229296012  0.0852289572358 0.109103307128 -0.27055695653  0.07707493752239999 0.127253636718 -0.199824258685  0.128097131848 0.07648140937090001 -0.209757223725  0.154867321253 0.13628205657 -0.212952241302  0.08678253740069999 0.189277544618 -0.274375885725  0.127699971199 0.0803090333939 -0.326344817877  0.0577741526067 0.0601542405784 -0.31936660409  0.0525139421225 0.129102528095 -0.326874881983  0.0251371748745 0.175572559237 -0.261228203773  0.0199144631624 0.0927290171385 -0.265960127115  -0.148952946067 -0.121583275497 -0.374568909407  -0.25 0.177950121638 0.0405701099774  -0.25 0.111295968676 -0.00354384794953  -0.175531774759 0.135734900832 0.0562076568604  -0.178730383515 0.191659659147 -0.00562386959791  -0.0244714934379 -0.108516678214 -0.387223660946  -0.09279609471560001 -0.170035287738 -0.445968538523  -0.0281062982976 -0.0
[...]
<PointData  Vectors="f_57"> 
<DataArray  type="Float64"  Name="f_57"  NumberOfComponents="3" format="ascii">1.3431096919006374e-03 -2.1333631246001051e-03 -2.9409356893212012e-02  1.5948850532538558e-03 -3.1697372405056559e-03 -3.0876752480539119e-02  2.8670674373504915e-04 1.2428874329711271e-03 -2.6162364847303519e-02  6.6279477058540552e-03 -3.6271968093025482e-03 -3.5099420848090972e-02  6.2443018029446559e-03 -6.0758242113121991e-03 -4.3125269290054558e-02  6.9872248661968809e-03 1.7193480749173222e-03 -3.1558842527214186e-02  -2.1299332269193649e-03 1.5792468706119509e-03 -3.1073469085275727e-02  5.6029866468434589e-03 -1.2641706285050557e-03 -3.1873213056968178e-02  1.7620851465036193e-02 -8.5500302068246582e-03 -4.6322176463873779e-02  7.0756089669587298e-03 -1.6101325661383990e-03 -2.8493734023980772e-02  -1.6773575020542702e-04 9.9110359688518875e-04 -3.1512416421267536e-02  -9.1055985376321162e-04 1.4072324010235458e-03 -2.9399830178310462e-02  -3.9149987330431272e-04 -7.0942839156504971e-04 -2.7205883726557425e-02  -1.9251677560542307e-03 1.1685268350530599e-03 -2.4929976524656113e-02  2.5500183668159860e-04 -2.8861120602492064e-03 -3.0155278280343048e-02  1.7242525870088280e-03 -1.5136814665631933e-03 -3.3056757730850247e-02  -1.9720643031072515e-03 -6.6892222448319621e-04 -2.1195405250726811e-02  -1.6238878435596317e-04 8.5604679825103001e-04 -2.9242924720904076e-02  1.0265084377812069e-03 -1.5304070975947384e-03 -3.2811190755257819e-02  6.2211404176779700e-02 -2.0623926282979502e-02 -4.4207930313783367e-02  3.0565402636488950e-02 -3.7733408430216879e-02 -2.5932541956641270e-02  2.2305232944032017e-02 -7.0402737562867577e-03 -4.7138105989493272e-02  2.8415980169658142e-02 -6.4450009259446970e-03 -3.5184923111943808e-02  4.9514587871409714e-02 -5.1239847853617973e-02 -1.7998417380732074e-02  5.8400150810364974e-02 -2.9644025208132863e-02 -3.6635862232589369e-03  3.3526074889431545e-02 -9.4427548809474706e-03 -3.6132584906627692e-02  1.6126518581084195e-01 -9.0106866388880366e-02 -7.5852926680596858e-02  5.5694644272007232e-03 -1.2593818220321585e-02 -3.8716081652227348e-02  -4.4716897220333035e-02 6.2744930873657373e-02 -3.0971864745176842e-02  2.3359907168540978e-03 -1.6224818499906500e-02 -3.9333102492477921e-02  4.2030111672961189e-02 -3.0013416737050833e-03 -2.7171608336460883e-02  3.6715740722948711e-02 -2.2151397847235351e-02 -2.8421390351337037e-02  8.5925900276703651e-04 -3.0462505019485271e-04 -3.1521994632325696e-02  9.6127813701462207e-04 -2.9053779488045516e-03 -2.7866256189708675e-02  1.4645052466540410e-03 5.1282974069884885e-04 -2.8317651686323744e-02  -4.0421068950516337e-04 2.8468013524944355e-03 -2.9252964896392800e-02  2.5444342956669978e-03 -9.9717698320949573e-03 -3.9452160478497408e-02  -2.1671453362399970e-01 2.2469040265067486e-01 -1.9322248329155201e-01  -1.2325337506965640e-01 1.8322681475320660e-01 -1.1543289583568540e-01  -1.4645955318671922e-01 8.4947156460833464e-02 -1.1472025054161160e-01  -9.8746615511770247e-02 1.1927615143362702e-01 -6.7175779460156390e-02  2.3975780611300485e-03 -5.8407512259175357e-04 -2.9916381345793833e-02  -9.1130298824590658e-03 3.6407721073233295e-03 -1.9275039449309382e-02  4.7301979858112514e-03 -2.2399155513743419e-03 -3.5313607514374845e-02  1.6578376915369181e-03 -1.0034497798970285e-03 -2.6388610433081446e-02  1.7375971732138320e-03 3.5566490249394206e-03 -3.3526726149653338e-02  2.7348321947027930e-02 -7.9432377024877439e-03 -1.7572817212250139e-02  1.6942997026222043e-02 -1.3311828304514561e-02 -4.6472787306898926e-03  2.1051759280706097e-02 -1.9201413750594212e-02 -2.7533150147254961e-03  1.4963972794999491e-02 8.5503608938623292e-05 -1.6286056334359724e-02  2.1062804685832867e-02 -1.7468176445104105e-02 1.5135679382604820e-02  2.1620814004839513e-02 1.7045678401477827e-04 -3.4644427697610787e-02  2.0917907557828325e-02 -2.4066431126273458e-03 -1.5492489625353939e-02  1.2092591294372373e-02 -6.8085081014606216e-03 -2.3657286980732393e-04  2.0233559644094123e-02 -6.6559241260023818e-03 -4.3434508342527635e-02  -2.9956829748949192e-04 9.9377323637113001e-04 -2.2756547689888856e-02  -2.9925371427219111e-03 2.1453692194536302e-04 -1.9004680331418666e-02  2.7388236832215839e-03 1.4264536202063349e-03 -2.4631130493026846e-02  3.9090408631530064e-02 -6.2843432373371026e-03 -4.4633782452199637e-03  1.4344141549576740e-02 -5.1409048452034196e-04 -2.9483348587566689e-02  2.7798166460420919e-02 -4.3029713904563288e-03 -4.5056795603520487e-02  1.6661012593097567e-02 -7.6507981612766339e-03 -2.4005527705509646e-02  2.3937480016141027e-03 2.2413820336584542e-03 -3.5770951073153000e-02  -2.1988525980962581e-03 -6.8314387376592805e-03 -3.1868727649437545e-02  -3.8791749938913128e-04 5.4254134200475606e-03 1.9605360101554842e-03  -1.2374815944407614e-02 -1.9293162849942039e-03 -5.6883865769285294e-03  5.8675315778150784e-03 -3.7176004416098023e-03 -1.8248912086501545e-02  1.1683302119033069e-03 7.7086751768300115e-03 -2.7086521511841726e-03  -2.8040701461425614e-04 2.0061664057006690e-03 -2.8242641886686851e-02  2.5771477657633157e-03 2.2170976978557969e-03 -3.2780061359209842e-02  -2.1083184680789965e-04 4.5797332435175741e-03 3.3885366892048032e-05  -2.5117733929099856e-04 5.2043047420598570e-03 1.6891447961112532e-03  2.6567397949988831e-03 2.1499068871332176e-03 -2.3383171011677559e-02  -2.6755753021445398e-02 -2.0104792196045634e-02 2.3418560706706802e-02  -3.2425934458520642e-02 -3.1025922542620057e-02 1.5472262077329471e-02  -2.9553264192968151e-02 -2.5370512768488136e-02 2.7282854111905373e-02  4.6378027036833569e-04 -2.3063271352270227e-02 1.1167344415643725e-02  -2.8420054617484211e-03 4.7912249996871978e-03 -3.1446466484635167e-04  -4.5109271883418157e-03 5.7925168138951676e-03 1.4703137853525219e-03  -3.6415388301096721e-03 3.8656898837415021e-03 -1.8616144030114154e-03  8.8446097154008252e-03 8.4988460866846496e-05 -1.0120515905647645e-02  -3.9982564895563325e-03 -1.3038216299395846e-04 -2.3193578424394880e-02  2.3356288710547142e-03 9.8947430419088966e-04 -3.3012352908277781e-02  1.7563332650512172e-03 1.7719551740499849e-03 -2.5629088004335318e-02  7.9514120885322320e-04 4.1398927345512743e-04 -2.8864206898077033e-02  9.4363018001093096e-04 4.0723337754738610e-04 -2.1721246031143237e-02  4.6236598380018434e-04 -1.1318245533814139e-03 -2.9703784979059053e-02  1.9594959670567414e-03 -5.3746696626729990e-04 -2.6437261169138832e-02  1.0343557422534110e-02 -9.4858843926679485e-03 -3.2533186454692178e-02  -9.5441588299469008e-04 -5.2898642692758211e-04 -1.0927054944229438e-02  6.6410698775726348e-02 1.9330142678168481e-02 1.0453334699940905e-02  1.3093919743212275e-02 -2.8619946031987085e-03 1.7962233533974636e-03  3.5383714659137221e-02 -1.2091225409993421e-03 -2.2938472018946842e-02  5.3472180706646425e-03 -2.3382853134392645e-02 -3.1238368717601994e-02  3.0280003380430465e-02 1.3552778820039208e-02 -2.7580822491133170e-02  -3.2374539913169117e-03 1.8806182414919850e-03 2.1290722371940924e-02  5.1155422791711633e-02 -8.1124633950204784e-03 -7.1912630035939340e-02  4.4368748132592561e-02 9.9964985849837675e-03 -8.8774660677845164e-03  1.5888784553113985e-02 3.9675338079260434e-03 -3.0593917386522979e-02  8.4033717166867774e-03 -2.6769915842614019e-03 -1.4227906736219230e-02  4.5256399338084896e-02 -1.0848577791091458e-02 4.4540969484135901e-03  -8.2121514713679612e-03 -5.1492616569705572e-02 -7.3294182629960666e-03  -3.1540124329295215e-03 -2.3933702430187025e-04 -2.5505057843951712e-02  -1.6822050255722758e-03 1.4047303809235619e-03 -2.3126277980897992e-02  -2.9536484978224149e-03 -2.4286940008400632e-03 -2.2481235899021314e-02  -1.7170595229048405e-03 -5.5155240264233838e-04 -2.0379441108836837e-02  -8.2221831807191545e-02 -8.2125469156844808e-02 4.3108587689138708e-03  -9.8232177213063198e-04 -5.0017108476776474e-04 -2.7387718227060327e-02  -3.6089293608802049e-04 7.1391868850941085e-04 -2.5448236585292203e-02  -5.1960852887579306e-04 8.6054504990142175e-04 -2.9699393974354969e-02  -5.9633067700823556e-04 -2.6324414316970831e-03 -2.7756573374940866e-02  1.2983727461902334e-03 -3.7709390926867051e-05 -2.2839004248102878e-02  -1.9331316293842146e-02 1.6550700005703904e-02 6.8716460442898144e-03  7.6607448841786052e-02 -2.5906726725428368e-02 -1.4234425221848004e-03  3.4140433138814236e-02 3.2376189861611738e-03 -8.5740221212071199e-02  -2.2698840039306546e-02 5.8957779875885602e-02 3.9175132101093281e-02  -2.4448954346588083e-02 7.7489141574806422e-03 -1.0407236633711693e-02  1.0566614228048382e-02 -3.1208500696782520e-03 -2.1780258267706385e-02  3.6307332580595387e-03 -5.8763310058223650e-04 -1.9400872643223609e-02  1.6301572080888949e-02 3.6750400062250791e-03 5.3301354869931346e-04  9.6509221439708449e-03 -1.5961300358514140e-02 -1.1832283738784661e-02  6.5084051960484241e-03 -1.2623849938375863e-02 -8.8548306957437033e-03  1.2002107186183946e-02 -6.9530548668408354e-03 -1.6446300464851977e-02  -8.7772818042213870e-03 -8.4013405596918573e-03 -6.1016238547135738e-03  1.9961615112362909e-02 -1.3113551703895941e-02 -5.1774823341769523e-03  3.6070252377765921e-03 1.1129406156376385e-03 5.9205346438760019e-03  5.4205442233034636e-03 -3.1564618340024723e-03 1.5948011446897607e-03  1.2723522774205260e-03 -1.5581146727718571e-03 -2.0399221429430830e-02  1.1128741605427610e-02 -1.2412779568532633e-02 -2.0363883017021748e-02  -1.2867300970498426e-03 -5.6901088173277816e-04 -8.3522980148598277e-04  -8.2297859808577571e-04 -1.5407776931456761e-04 -2.8173888387847067e-03  -9.1656441875550762e-05 5.9455980789060264e-05 -4.7657854433332206e-03  -3.2376963430306902e-03 -5.8968243954426050e-03 -1.2072078946920710e-02  9.8474891572353424e-04 -6.8968249266418771e-03 -3.0433222730463221e-02  6.5283407876624570e-05 -5.1357792127228723e-03 -2.2152237886585418e-02  -2.2273803335613545e-03 9.6419521185313137e-03 -2.6115458092901226e-02  1.5675439569572496e-02 -1.7427468289357647e-02 -3.5849191962696071e-02  7.8293174098598723e-03 -5.8798246170113609e-03 -4.2360168527300061e-02  -1.1162830517962568e-03 -8.0636684210978759e-04 -2.5126817239110016e-03  -1.1695286874449590e-03 -7.1826759148319052e-04 -4.1204591883107575e-03  2.2488987958982055e-02 -3.1454909724300171e-03 -3.1088126299607374e-02  2.5944609741701423e-02 -1.7438455688631938e-02 -4.3574896968309997e-02  -1.2080875632991934e-03 -1.2242444349693611e-03 4.4138403938683369e-03  -1.5543154934103348e-03 -1.2532154830629924e-03 6.3965048441256200e-03  -1.4047118900762981e-03 -1.1284878031731544e-03 2.9099422848702884e-03  -1.0614092755879794e-03 -2.9413031473004220e-03 -9.7342609969257431e-03  1.0959375650971367e-02 1.5839595819042290e-03 -1.5866401230752569e-02  1.8108685699368143e-02 -5.9324227772354990e-04 -2.7210024529322838e-02  -9.3157224425715864e-04 -5.4390039572648693e-03 -3.2677353133054365e-02  1.1522448646675542e-02 4.1275311484013141e-03 -1.0997827016918760e-02  2.1782227935047862e-03 3.2810681193534558e-03 -2.3467159611195148e-02  3.4465680342345723e-03 4.0750661154825164e-03 -1.9623349679780390e-02  -2.3970841463930802e-03 -1.3887596229192180e-03 -2.4548239351343457e-02  4.6719969081330465e-03 2.1508128310856263e-03 -2.3631647375604036e-02  3.9005763097532513e-04 5.9563699063134125e-04 -1.7168282156665195e-02  -3.7036119871993408e-03 -5.3291108747308526e-03 -1.0794163872559586e-02  -2.1830848939779859e-03 -3.7827773118585269e-04 -1.5226402496405424e-02  -2.6378273158154260e-03 -2.1247978170230004e-03 -1.3405284076702240e-02  -1.1129705101010281e-03 3.3504260426055255e-03 -1.4571906831983755e-02  -5.3708325722083639e-03 -4.6404420342872630e-03 -1.6429690350281932e-02  3.1525680848385547e-03 3.6532924901157418e-04 -3.1292508650331702e-02  1.9812282462775199e-03 5.4917934562654389e-04 -3.0439095747913134e-02  -2.1273730691281308e-03 -3.1901479061055352e-03 -1.8559098741879776e-02  4.7460040027104446e-03 -3.1336159330891513e-03 -2.9697696138772749e-02  2.9701509921854978e-03 1.2988448112658646e-03 -2.3786509056728602e-02  1.4747701665176946e-03 -5.2662613743421852e-03 -1.8765801182557357e-02  -1.8934831698778035e-03 -1.0320666115174567e-02 -2.6155617437443091e-02  5.1870792115541161e-03 1.0013349639912712e-04 -3.4163638948440149e-02  -1.9202484407341524e-02 1.6119584352131858e-02 1.8713148721560140e-02  -1.1350164507806529e-02 9.4397206599301144e-03 1.0980199175594797e-02  -1.3798828937179514e-02 1.1163657837955837e-02 1.1483858072536787e-02  9.0665003870506731e-04 2.6072246734733760e-03 -1.8348929024851104e-02  -1.1460211730113703e-03 -1.9494291022521515e-03 1.2710087490464777e-02  -9.4743312372540646e-04 -1.5222161896660386e-03 8.6643727732053696e-03  -1.4133039331848648e-03 -1.6991504219104297e-03 1.0317494299536829e-02  -8.3615447111711101e-04 -1.4330840190036527e-03 1.1076958039907072e-02  -6.3477050770448348e-04 -8.6417853767432173e-03 -2.8915085955006230e-02  3.6929993075529251e-02 -3.3420659259620428e-02 -1.9504187986188404e-02  1.2676181256984704e-02 -6.1127479097761818e-02 -1.5760643308344320e-02  4.6943156192884639e-02 -3.7076824035274153e-02 -2.1871778496359667e-02  4.1244657922250433e-02 -3.4125933392681600e-02 -4.9391484766768995e-02  7.3873820656254882e-04 -7.6369765273749581e-03 -7.7377750846429460e-03  7.6844019765815140e-03 -5.8700170477558921e-03 -1.3323695236926749e-02  -2.1893297519990605e-03 -4.0033578127034067e-04 -6.2156029855629539e-03  -1.4027145838858331e-03 -6.6496672208441333e-04 -8.1642862668688705e-03  7.3853024548661719e-04 -7.7801729505694881e-04 -1.8727972943630634e-02  -7.8421303947188656e-04 4.3205972552036725e-04 -1.3434918186279756e-02  5.6742201480188608e-03 1.0917230533288250e-04 -1.2679932121805073e-02  9.1867601238068419e-03 -5.8245359737306348e-03 -2.0226395312074305e-02  -2.6644790238718463e-02 -1.9142880045238935e-02 1.2299724165858969e-02  -1.7212607792379635e-02 -1.2085103444389131e-02 1.2775307891564345e-02  -1.5243874538045130e-02 -8.2705167282711590e-03 9.9631893111847246e-03  8.9928487191781690e-04 1.5538074906437877e-03 -2.3677445089833594e-02  -1.9336639157890912e-03 1.2445245499134031e-03 -2.3265078930419479e-02  1.5709959499303288e-03 -1.1946569445823033e-03 -2.9627331489186642e-02  -2.8486302969747717e-04 -6.1347962426714232e-04 -1.8359304045146428e-02  1.1952012453503805e-03 -1.6518861959983458e-03 -2.0586021493532058e-02  -1.2411935819440474e-03 1.8597782724080979e-03 -2.2828709373685419e-02  4.2222319457246223e-05 5.6938658498704336e-04 -2.8383367213208832e-02  1.0593078471652644e-03 -2.9816310699117178e-04 -2.6168099280690704e-02  -1.8185295603186432e-03 1.2730464150825273e-03 -1.6331051466971426e-02  -4.4361237670280878e-04 -6.5466259451783576e-04 -2.9496679318769262e-02  -8.2150895421895730e-04 2.5976166989973937e-04 -2.0517195549361000e-02  -1.0124876171366154e-02 1.0585863087407624e-02 1.1236597383190420e-02  -7.3477141007740783e-03 7.2487754834005148e-03 7.3562973050443512e-03  3.5833790001635231e-03 -1.2356460437846687e-02 -2.9483463200718034e-02  -9.0470626836257322e-03 -3.3577201109007953e-03 -2.0132961383709555e-02  2.1270493119631699e-03 -7.2919099831287464e-04 -3.0837488100985716e-02  -2.9285974612470599e-04 4.6131212184514283e-04 -1.9511300046758547e-02  1.6725860396796187e-03 -1.0078706028705591e-03 -2.8746340376872771e-02  -9.1582524494283699e-03 8.8611477846578177e-03 7.7607443910741661e-03  -6.3915346148940861e-03 6.5953146801281896e-03 4.4570337889336051e-03  -2.2163323073483731e-05 1.8533198254099123e-03 -1.8665340972682670e-02  -2.4782718862088929e-03 -1.9610848345220965e-03 -1.8665687194965121e-02  -2.3706828074078756e-03 1.1931962802421464e-03 -1.4426948671638701e-02  -2.7872092372112950e-03 -1.4288455991473348e-03 -1.9365677743642899e-02  -1.8465512125725415e-03 -5.5542233950073012e-04 -2.4368170074134211e-02  -4.7203583534511458e-04 7.0069233397279960e-05 -9.4656531250352331e-03  -4.7739728478713139e-04 -8.3319509024096805e-05 -1.0128928603299813e-02  -1.3158697649024282e-03 -1.5018667122683070e-04 -8.5817514914636461e-03  -1.7202996542300139e-03 1.1876726417852359e-03 -1.6754997215180555e-02  1.3712969866591872e-03 -2.2876256412708690e-03 -3.1620399829770884e-02  1.7408135717469247e-03 -1.1842493442839152e-03 -3.3244293728655831e-02  1.0920793974945290e-03 3.6351717606899706e-03 -2.4106111669974964e-02  -1.3752287276499804e-05 4.8982909844119248e-04 -2.2661725851539635e-02  4.1702316603738970e-03 -9.0025472964579991e-04 -3.3189448796455773e-02  2.9943573615660983e-03 -2.3837566006674783e-03 -3.4235258059499445e-02  -8.7428309958916678e-03 -2.1377956201962490e-03 5.3738633664807498e-03  -6.0378106128501658e-03 -1.4107172228589591e-03 1.0062424260622461e-03  -5.9317971908279064e-03 2.5218860034928832e-03 -1.3856328224801377e-02  -6.8224851378555478e-03 1.9023448823749711e-03 -1.2192617754232872e-02  -2.5090677107396588e-03 3.3679573068343227e-03 -2.9886941594986643e-02  8.1880507331948409e-04 -4.9301518457205487e-04 -2.6663460662052590e-02  1.2663157972945730e-02 -1.6487748788764380e-02 -3.9809122100601939e-02  -2.0306332858200323e-02 6.7481671764569005e-03 -1.7032384840061233e-02  -2.7575766971803688e-02 -3.7164667084879220e-02 -8.0027462590723936e-02  -1.6064570655044397e-02 2.3361285005999051e-02 -2.1665814474571089e-02  3.9684454787652992e-02 -6.6196120827490518e-02 2.4246547430955997e-02  -6.0487818157424012e-04 -3.5592636151477705e-04 -3.0198355253138867e-02  6.1093763199433586e-04 -6.1237454761650710e-04 -2.6833583768651373e-02  1.6700894209117548e-04 1.8056216920225485e-04 -2.6151809440729416e-02  -5.4838527437296161e-04 5.0721687176247428e-04 -2.8157743665899033e-02  6.5990440800335159e-04 1.1351279833231290e-03 -2.5344612721131556e-02  -3.0244721351025796e-03 2.9148049615270091e-03 -2.4367490879879210e-02  1.8059796604170422e-05 -7.6942195288956755e-04 -3.0548997120513049e-02  5.6213538340446330e-04 6.7538220381450887e-04 -2.7406729137764284e-02  4.8634806882269445e-04 -6.0622325204022325e-04 -2.6584685706327413e-02  -3.0754007917636124e-04 -9.1642479930610025e-04 -1.7878189794610849e-02  -1.5215024541071642e-04 -3.9978442570002626e-04 -2.2406680521753382e-02  1.9546248252624065e-04 -5.4666084631403917e-04 -2.2738461531665251e-02  -1.0832020175750084e-03 1.0137170380221927e-03 -1.5418788439765255e-02  -1.1168106507931305e-03 5.5221300467221679e-04 -1.6895625084455999e-02  -4.0993494796981282e-04 1.2922832146611667e-04 -2.2097853321256827e-02  -6.1377806391227114e-04 2.3696357777307445e-04 -1.5956860728896727e-02  -3.1163260736821752e-04 1.5240327446481893e-03 -1.6029467728198060e-02  1.1632564537158317e-03 -1.3742897320754700e-03 1.3601918052994129e-02  1.9715803815825591e-03 -4.2589041796046497e-03 7.0935700091026123e-03  3.2447739207880090e-03 2.8279932605271120e-03 7.3924963342456946e-03  1.3556486940686546e-02 -4.7019098997220206e-03 7.3080030946957473e-03  4.4098019259314093e-02 -3.9066810214454892e-02 -5.7970933157997211e-03  7.1736876917227035e-02 -1.4291408582116631e-02 -4.9004810094346068e-02  -3.1040809528057399e-02 2.6265468337876047e-02 2.9860709407322977e-02  -3.1413124009094948e-02 2.8218598143429866e-02 1.9015342459825384e-02  -2.4114171444678235e-02 1.7427640525888313e-02 2.0120679441724215e-02  3.8889529995649146e-02 -2.5100870784876776e-02 -9.5744895117158418e-02  5.6316374929408379e-02 -8.3161900394833187e-03 1.5907215540642138e-02  5.6867548416960206e-02 5.7326158257953964e-03 2.1431192977463293e-02  2.2794942458825958e-02 -4.8112494701227776e-03 4.8147522962259217e-03  1.0224897126596255e-01 3.5360980414106866e-03 -1.9465531278298240e-01  8.8875481281100698e-03 -2.9950132295206211e-02 -1.5433789525148149e-02  6.9996852633606884e-04 -1.8386409061472878e-02 -2.9899130283997082e-02  3.0600089548397402e-03 2.3276366459118205e-02 -7.3514901936760288e-03  1.6770257825505855e-02 5.0722543403672483e-03 3.5896630379587499e-02  -3.8983662848354343e-04 -9.3003369747367371e-05 -1.0079336202809937e-02  -2.9973431556725886e-04 -2.7408334106592394e-05 -1.0600328337941842e-02  -1.0834982792320403e-03 -7.7078328342522790e-05 -2.0922444086717912e-02  -4.9994486005953298e-02 4.1987054865839035e-02 4.128963