<?xml version="1.0"?>
<VTKFile type="UnstructuredGrid"  version="0.1"  >
<UnstructuredGrid>
<Piece  NumberOfPoints="857" NumberOfCells="3763">
<Points>
<DataArray  type="Float64"  NumberOfComponents="3"  format="ascii">-0.0182597916573 0.126128911972 -0.119588643312  -0.0077641364187 0.0512270443141 -0.07050477713349999  -0.0237180162221 0.16240182519 -0.053058128804  -0.107877351344 0.105669431388 -0.0502408407629  -0.0444478429854 0.116080775857 -0.00235075876117  0.0393674038351 0.112876079977 -0.0491501875222  0.0248903874308 0.0489483103156 0.000152088920004  0.0314915925264 0.114928804338 0.0218031276017  -0.0657326281071 0.0685198307037 0.0497140102088  -0.0355357266963 0.164656624198 0.0508319064975  -0.010538729839 -0.0422629192472 -0.208358153701  -0.0239527057856 0.0135364839807 -0.242119863629  -0.0194642152637 -0.0775559768081 -0.263431429863  -0.08492307364939999 -0.0108216870576 -0.280446648598  -0.08293507993220001 -0.0361198186874 -0.159778758883  -0.0240796487778 -0.0824203491211 -0.148982465267  0.0430508553982 -0.121076337993 -0.234084427357  0.0307756774127 0.0324950888753 -0.198437720537  0.00352357281372 -0.00433266581967 -0.144715368748  -0.0456651262939 0.08372022956609999 0.342343091965  -0.116630032659 0.0117083769292 0.386158525944  -0.08223126828669999 0.0577075146139 0.289406776428  -0.0511222109199 0.00205342215486 0.300772219896  -0.0125984866172 0.0267426930368 0.351842552423  0.0303636882454 0.0561947338283 0.391145974398  -0.0524924062192 0.0543583929539 0.40361738205  -0.07944945245979999 0.130002260208 0.441037595272  -0.000730989675503 0.119443200529 0.385622620583  -0.078488714993 0.137875169516 0.332541137934  0.0142801422626 0.110509291291 0.27100610733  0.0224165506661 0.08303219079970001 0.331783413887  -0.0170432701707 0.161798536777 0.30022162199  0.000811119796708 -0.0515509881079 -0.08419398218390001  0.0888616070151 -0.015075173229 -0.0776951387525  -0.0989535748959 -0.0518730916083 -0.08125374466180001  -0.0433920919895 -0.09785594791170001 0.0106235472485  -0.0488061010838 0.0295096840709 -0.0131453983486  -0.25 0.25 0.5  -0.166666666667 0.25 0.5  -0.25 0.195066730511 0.445658150344  -0.19506166517 0.25 0.445542865294  -0.0213422998786 -0.126349791884 -0.045622177422  -0.117952652276 0.0158270020038 -0.16616243124  -0.0531469397247 0.0490713231266 -0.13630309701  0.0358348339796 -0.131537660956 -0.134171053767  0.0583617314696 -0.115307979286 -0.0462360456586  0.010585160926 -0.0606908276677 0.314250290394  0.078067921102 -0.133790805936 0.331458956003  0.0206208750606 -0.104583717883 0.36723652482  0.0300164371729 -0.13569638133 0.270959883928  0.0797956883907 -0.07311873137949999 0.388136893511  0.0291880238801 -0.0850581228733 0.220644980669  0.0788302049041 -0.07555303722620001 0.284453928471  -0.0465739220381 -0.108428947628 0.305151432753  -0.056692365557 -0.0812899768353 0.234353885055  0.10282895714 0.0630551427603 -0.0452189296484  0.178613707423 0.153893724084 -0.0703043565154  0.0750898644328 0.130835875869 -0.116260357201  0.0179002508521 -0.0400723591447 0.396018892527  0.07961820065980001 -0.020668130368 0.232235535979  -0.00726175494492 -0.022667773068 0.242156982422  0.0524490773678 0.0171752162278 0.310696065426  0.0103002395481 0.0813155695796 0.107229083776  0.00225681974553 -0.008687185123560001 0.0457225777209  0.177950121638 0.25 0.0405701099774  0.151375159621 0.202163234353 -0.00268407491967  0.13042794168 0.172564610839 0.0599601529539  0.184557154775 0.16295710206 -0.00737970136106  0.0827306732535 0.011830884032 0.0299163535237  0.106673434377 0.0676268041134 0.0663062110543  0.25 0.25 0  0.25 0.177947182503 0.0435581305687  0.0251978598535 -0.0201241951436 -0.0233656335622  -0.25 -0.25 0.25  -0.175495340629 -0.25 0.295351832328  -0.25 -0.175776260788 0.294629825204  -0.164853364229 -0.189889326692 0.246240898967  0.111295968676 0.25 -0.00354384794953  0.0417815256417 0.25 0.0264120515999  0.0577150444892 0.25 -0.0418173710713  0.035034801811 0.196921139956 -0.0497792549431  -0.115254960954 0.0352221727371 -0.0357825122774  0.0360979661345 0.0743419006467 -0.130612716079  0.08110298216340001 0.0143552683294 -0.135737240314  0.0281950440258 0.110801942647 -0.38559025526  -0.000352636008756 0.154027625918 -0.45018479228  0.0220217909664 0.07910815626379999 -0.445265561342  -0.041934799403 0.09297795593740001 -0.440330862999  -0.115356497467 0.128115877509 0.0303980205208  -0.08144567906859999 0.192924261093 -0.0396481454372  -0.0503155887127 -0.140062868595 0.370642662048  0.0181560348719 -0.191118896008 0.319997102022  -0.09442232549189999 -0.0766885429621 0.347179293633  -0.10306725651 -0.0245223585516 0.261891931295  -0.0371639840305 -0.192689821124 0.258922994137  -0.08778057992460001 -0.193450272083 0.293951839209  -0.116932563484 -0.137108251452 0.278956532478  -0.0434515699744 -0.19969072938 0.340430229902  -0.016621209681 -0.143479332328 0.208528921008  -0.0799133181572 -0.177766740322 0.206858798862  -0.0340202823281 -0.07231882214550001 0.405357718468  -0.153045728803 -0.0703692808747 0.28540495038  -0.0647673308849 -0.069349065423 -0.297796696424  -0.0468406006694 -0.118580199778 -0.331259429455  -0.0636249184608 -0.122360698879 -0.235275790095  -0.137311711907 -0.115820750594 -0.279358655214  -0.25 -0.25 0.333333333333  -0.00222280388698 -0.0275516584516 -0.327156513929  0.0233143884689 -0.124395690858 -0.330935031176  -0.00544846989214 -0.0444226972759 -0.392852008343  -0.07202984392639999 -0.0450558848679 -0.379192590714  -0.128861442208 -0.0482712239027 -0.325591087341  -0.0319190612757 0.25 0.27473160228  0.0259018652141 0.196524605155 0.343851953745  -0.0424101948738 0.196461260319 0.324036180973  -0.08801463991400001 0.193724930286 0.280150324106  -0.051391992718 0.129726842046 0.244459152222  0.0793330296874 0.131078347564 0.273738384247  0.0304427426308 0.197590425611 0.258007407188  0.139736711979 -0.103549621999 0.308288753033  0.117407329381 -0.00031748006586 0.284001767635  0.17845864594 0.0137020656839 0.2717012465  0.133446916938 -0.07468281686309999 0.252671837807  0.193237304688 0.0103836003691 0.32706490159  0.108656100929 -0.016409387812 0.370573759079  0.195593327284 -0.0705924406648 0.374003827572  0.204297035933 -0.0882691517472 0.283604085445  0.15987212956 -0.0232784096152 0.211559042335  0.103109702468 -0.0715631917119 0.185957938433  0.25 -0.177950121638 0.0405701099774  0.25 -0.111295968676 -0.00354384794953  0.168315500021 -0.181550845504 -0.0129796266556  0.203061833978 -0.0839376300573 0.0201103240252  -0.123973377049 0.0421161539853 0.0831994190812  0.10652089864 0.041568480432 0.133020982146  -0.00508088478819 0.00464248098433 0.118765294552  0.0384838804603 0.0542355030775 0.219570666552  0.0556482039392 0.09942726045850001 0.165778696537  0.25 -0.25 0  0.25 -0.17904445884 -0.0421267671166  0.0085972994566 0.139411628246 0.206887423992  -0.0427397117019 0.0734880268574 0.199836358428  0.25 -0.25 0.166666666667  0.177338154858 -0.25 0.209433902167  0.178222204231 -0.25 0.126578397361  0.180748909712 -0.154124230146 0.180074676871  0.118582360446 0.0498475395143 0.233844980597  0.113276541233 0.115120351315 0.208414897323  0.068451166153 0.123325429857 0.09300038218499999  0.08695217221980001 0.18308262527 0.11987875402  0.1366494596 0.0978636816144 0.125807240605  0.0170362386853 0.165571182966 0.116205818951  -0.075325883925 -0.13042730093 -0.120773427188  -0.191016584635 -0.1764793396 -0.0778442546725  -0.102759346366 -0.20253264904 -0.07015967369080001  -0.126150563359 -0.115044787526 -0.0573479756713  -0.138729035854 -0.104583211243 -0.134180948138  -0.147993162274 -0.138949289918 -0.203295826912  -0.180331096053 -0.192031860352 -0.160557568073  -0.194399222732 -0.0846866071224 -0.148938387632  -0.11259970814 -0.078034222126 -0.193649172783  0.0326924659312 -0.122268341482 0.0296003930271  0.0215157996863 -0.180560961366 -0.0757267251611  0.0956164896488 -0.0493310950696 -0.0164182558656  0.112129375339 -0.112067811191 -0.105549775064  0.127802968025 -0.106147237122 -0.0110959038138  -0.0854129120708 -0.015297700651 0.056893799454  -0.0204317308962 -0.0795602425933 0.117458000779  -0.178222204231 0.25 0.126578397361  -0.177947182503 0.25 0.0435581305687  -0.107976816083 0.25 0.0905854563709  -0.157577678561 0.178241759539 0.0969507619739  0.25 -0.25 0.333333333333  0.25 -0.25 0.25  0.175776260788 -0.25 0.294629825204  0.25 -0.175495340629 0.295351832328  0.0932372882962 -0.0430554822087 0.0724518448114  -0.044769000262 -0.00661279587075 0.403999477625  -0.194478780031 -0.0247275307775 0.332954645157  -0.173761367798 -0.0806607827544 0.396263659  -0.137637495995 0.00523930834606 0.315887242556  0.0864742994308 -0.139340251684 0.176064118743  0.105438224971 -0.136641919613 0.253711819649  0.0308670303835 -0.25 -0.136809572586  0.0367561832589 -0.25 -0.219583441074  0.0925811678171 -0.20055809617 -0.19996842742  0.0127155454829 -0.193433105946 -0.225977659225  0.0415658205748 -0.200880005956 0.196522325277  0.0373581312597 -0.119548290968 0.120048768818  -0.0954102815882 -0.25 0.346414074494  -0.101368582479 -0.25 0.251933327382  -0.0374909392175 -0.25 0.286229296012  0.0852289572358 0.109103307128 -0.27055695653  0.07707493752239999 0.127253636718 -0.199824258685  0.128097131848 0.07648140937090001 -0.209757223725  0.154867321253 0.13628205657 -0.212952241302  0.08678253740069999 0.189277544618 -0.274375885725  0.127699971199 0.0803090333939 -0.326344817877  0.0577741526067 0.0601542405784 -0.31936660409  0.0525139421225 0.129102528095 -0.326874881983  0.0251371748745 0.175572559237 -0.261228203773  0.0199144631624 0.0927290171385 -0.265960127115  -0.148952946067 -0.121583275497 -0.374568909407  -0.25 0.177950121638 0.0405701099774  -0.25 0.111295968676 -0.00354384794953  -0.175531774759 0.135734900832 0.0562076568604  -0.178730383515 0.191659659147 -0.00562386959791  -0.0244714934379 -0.108516678214 -0.387223660946  -0.09279609471560001 -0.170035287738 -0.445968538523  -0.0281062982976 -0.0
[...]
<PointData  Vectors="f_68"> 
<DataArray  type="Float64"  Name="f_68"  NumberOfComponents="3" format="ascii">3.2854580682708550e-05 6.8658637353241036e-06 -1.9567261341259797e-02  -2.1997985034346228e-05 3.5895459165624564e-05 -1.9289024198626353e-02  -3.3018913942990225e-05 -5.2474277750986401e-05 -1.8435685109799163e-02  -7.2212927049525435e-05 3.5592620787411562e-05 -1.7116638088970751e-02  -5.9483515065715691e-05 2.1505203253640623e-06 -1.9563876078872590e-02  2.2174093104815686e-06 1.1567180256498029e-04 -1.7772914164062174e-02  -2.8190405957654705e-05 5.9516682466323767e-05 -1.9501021034147983e-02  2.2783065549803506e-05 5.4324658577878698e-05 -1.8075891843647478e-02  -3.9852801018937422e-05 -1.0917705308737147e-05 -1.9373604869110033e-02  -7.2843213096346809e-05 1.3389104033628883e-04 -1.6139820198800097e-02  -1.8969719620949494e-05 4.1952140289255338e-05 -1.9711990978922282e-02  -1.2038705483494069e-05 1.2146883577937055e-05 -1.9547870043693426e-02  7.9083036319468535e-06 3.7829178837362853e-05 -1.9291093784649525e-02  -8.9130894888421882e-06 4.7522764395289460e-05 -1.9440291524970735e-02  4.6882100121964535e-05 6.4340808858744398e-05 -1.8569003157236631e-02  7.8444814999570574e-06 1.8279914818881756e-05 -1.8965554435526916e-02  4.3702483561913374e-05 -1.6943894663413283e-05 -1.7899476481491948e-02  6.3417308090833405e-06 2.4348915362448425e-05 -1.9439842043011461e-02  8.9239042985469117e-06 5.0374003764494797e-06 -1.9419488424599823e-02  8.9711031676416395e-05 -8.9587016349158241e-05 -1.9231294930077525e-02  1.2507808411309879e-04 -5.0605418551600968e-06 -1.8528832755710427e-02  3.2066642424082899e-05 4.3177916986778702e-05 -1.8745530006805716e-02  2.9751960279799949e-05 8.3793126325837434e-05 -1.9181987106327774e-02  -4.9782314995773496e-05 1.7757557330550942e-04 -1.9419436558125475e-02  -2.1132299519717809e-04 3.0954657379808570e-05 -1.8494622386811356e-02  2.4680600888397539e-04 -1.8691676108217430e-04 -1.8556099737075751e-02  1.5199420592212638e-04 -1.8056912846237499e-04 -1.8179744005555640e-02  -3.2864779054717115e-05 -5.9056576412181296e-05 -1.6695711435401633e-02  2.0314916518733976e-04 -1.7922968179964169e-04 -1.8561957146685033e-02  -3.3297829219350584e-05 2.3105950216266267e-05 -1.9161497848359334e-02  -9.1902587557736353e-05 -3.1284226912878638e-05 -1.8518742092294670e-02  -1.3651363962345614e-06 -6.2481743516563706e-05 -1.8579002562621891e-02  -2.2961505072293067e-05 3.7283375780394840e-05 -1.9530406712325768e-02  -5.7508268893264485e-05 3.4669941519642723e-05 -1.8798646692684252e-02  -6.0870541641502786e-05 1.5670777351994928e-06 -1.8888266772683262e-02  -4.0762573491995226e-05 4.6846063922886703e-05 -1.9065693914963450e-02  -2.8838952228155207e-05 6.7350050422703404e-05 -1.9250967788899447e-02  1.1400521818983650e-04 -1.9091881547371458e-05 1.3918207406893592e-04  2.3931360654326443e-05 3.4651923271363114e-05 2.7409672619307240e-04  -8.7766611307393729e-06 3.5549038835316928e-05 2.0697013551164187e-04  1.8780869022847660e-05 9.6928473491784871e-06 1.0884275875204226e-04  -7.7875773040856597e-05 9.3537644966353825e-05 -1.7921460134235796e-02  4.5526487963108889e-05 7.3106985206917622e-05 -1.9192950705846420e-02  2.9802445123191052e-06 4.2786693718010912e-05 -1.9763269187564787e-02  -5.1277622011972809e-05 -1.6242093286185313e-05 -1.8712600122004985e-02  -2.1678549924426202e-05 -9.7886275381989108e-06 -1.7907753730177483e-02  -1.9893895380594767e-04 3.3391309054996903e-04 -1.9168192224460315e-02  -1.1388072229070499e-03 9.0009445716140654e-04 -1.8197547907147532e-02  -3.5147724076670887e-04 8.1223926065772021e-04 -1.8465660367002843e-02  -3.6358006316309759e-04 2.6306763838498877e-04 -1.7881411674417098e-02  -6.1252904011542661e-04 9.0291469819568627e-04 -1.8152648536372423e-02  -1.6374207678816917e-04 1.6842419027428789e-04 -1.9315187230068396e-02  -3.6837572498955211e-04 4.8925612742331602e-04 -1.8636883893176852e-02  -1.7519393160312386e-04 2.2398376671936045e-04 -1.7214907646586557e-02  -7.4195859028319998e-05 1.6809226702082749e-04 -1.8859969926633597e-02  -6.9487914812413275e-05 6.6576662553800229e-05 -1.8440579792484250e-02  1.9480256424075397e-04 3.3302065054101386e-04 -1.3551854873338624e-02  -4.7906708846167573e-05 4.3364967044734079e-05 -1.7296206733818327e-02  -1.2652205109976665e-04 3.1675508296130265e-04 -1.8889192951801866e-02  -1.9670198456894224e-04 2.1694217115790452e-04 -1.9084146386662143e-02  -8.4971648967757947e-05 1.5431688273380683e-04 -1.9305991240359751e-02  -1.4737278863461968e-04 1.6036141484599621e-04 -1.9041219406718563e-02  -7.6831481141536027e-06 5.9141176139565107e-05 -1.8998795524310316e-02  -5.6003822050160723e-05 5.8407138314472402e-05 -1.9729737538873884e-02  -3.6176336921897165e-06 4.7266394538044709e-06 -1.2113073725456286e-05  2.8516427805036357e-04 6.8386203412687172e-05 -1.2872417860242956e-02  -8.9531272116537427e-05 -2.9321886770840007e-04 -1.4607360137091636e-02  -8.3761320999340566e-05 1.4354298648857068e-04 -1.4510624096924126e-02  -5.6026272850860268e-05 1.0739552422684573e-04 -1.9259336413146689e-02  -1.0778546029818192e-04 4.5361695244968430e-05 -1.8665832409644794e-02  -3.1237877628587884e-06 1.1029590091003030e-06 -1.3615462406327447e-05  6.6384101297535030e-07 5.3989558674860677e-06 -1.3543171536210640e-05  -3.1549810455298635e-05 4.7211811425897840e-05 -1.9834298781020901e-02  -8.0357753293728037e-06 7.8444393936937588e-06 -1.8943714288043753e-05  -1.5702258550586776e-05 1.1486458840319897e-05 -7.9001119229398057e-06  1.6918315442278401e-06 1.2902723408611974e-05 -1.5318737952391371e-06  -9.8447311622475252e-06 -2.2236567405538597e-04 -1.1330422707136028e-02  -2.3705310155262620e-06 2.3594074614422860e-06 -1.2403584700495545e-05  -2.6559864801316227e-06 1.2235287070990987e-06 -1.1952127493495057e-05  -2.4377627937493737e-06 1.3115500539407678e-06 -1.4366961487667613e-05  -1.0090835478750217e-04 7.1887364656296381e-05 -1.4803008522374265e-02  -1.2556553880389536e-04 -1.3971827053986503e-05 -1.8235417679654749e-02  4.4593689093822378e-06 2.0613931722738042e-05 -1.9807248454920282e-02  4.6300283541733435e-05 4.3297045590829647e-06 -1.8850576540903319e-02  -2.6585270042527389e-05 -7.3155515659004686e-05 -1.8279038172027841e-02  3.5486262358510898e-05 -1.8282745313392794e-04 -1.4805192296027647e-02  3.4445810305713275e-05 -2.0185290942042655e-05 -1.9165866620902944e-02  3.8062887619399655e-05 -1.8073274249477383e-04 -1.8859943928116230e-02  -7.7713972832508106e-05 -1.3512008577703797e-04 -1.8249409720412512e-02  -1.5671129229933892e-04 -4.8712582828740406e-05 -1.3259924356970418e-02  1.4565160654092403e-06 3.6531086894783929e-04 -1.6763906675675042e-02  -5.1027449705434518e-04 3.2504230261256933e-04 -1.6296237966436880e-02  2.9716301267521838e-04 5.1402328939993182e-04 -1.7198984940919471e-02  9.5399354868119041e-06 5.5645422012893001e-05 -1.8922818460299036e-02  -2.5612494061423899e-04 2.8138612951129482e-04 -1.5766915761189462e-02  -6.4729347571896811e-05 -4.1163012279233090e-04 -1.4811480767266693e-02  4.8886532960303486e-06 9.5371611372532710e-05 -1.7374649984976218e-02  1.1787315919405329e-04 5.1973346427340963e-04 -1.4889957797036920e-02  -9.8008523886517840e-05 1.5819889367110730e-04 -1.8726451154148203e-02  -2.0360147610705470e-05 3.0752183976880912e-04 -1.5688642106994777e-02  -5.1975628284571772e-05 3.5456755824674307e-04 -1.8187418155213530e-02  6.4814452671824131e-05 2.0260066344586388e-04 -1.3701107423652827e-02  6.0437065751662460e-05 3.6178129469872226e-05 -1.8924619673777499e-02  4.1790305294713505e-05 3.3586169267601238e-05 -1.8708129247195740e-02  1.3482440931024439e-05 -2.1367379795318822e-05 -1.7454852230726639e-02  -1.7873101755533625e-05 3.9758955833532963e-05 -1.6413551426654776e-02  -2.1181425999862826e-05 -1.6695224032194691e-06 -2.3309783740434432e-05  3.4554109696412932e-05 2.9150376221674173e-05 -1.9318446611703545e-02  6.7377284196028555e-07 5.8088819581535983e-05 -1.9525183534823229e-02  2.0162413135135532e-05 9.0511202095775107e-05 -1.9234638213991975e-02  4.1528266777841740e-05 7.8709469420779884e-05 -1.8758994045299834e-02  5.1817994462650813e-05 1.0982087559974265e-05 -1.5551703375684321e-02  4.2812184007804535e-07 3.0343644170290072e-06 1.2723325726578219e-05  -1.8873711332802870e-04 1.1310454054889348e-04 -1.5597869845334998e-02  -1.5712114121366443e-04 2.1671513689400422e-04 -1.2355133497875330e-02  6.0025265823632819e-04 -3.3971490748018699e-04 -1.4720430251146261e-02  9.0013717161750633e-05 -3.6415980663855855e-05 -1.9339854119837612e-02  -1.6261616372718028e-04 -3.3544886985977819e-05 -1.6629207114293002e-02  5.0423107073026377e-05 -2.6094015471701321e-04 -1.7249787932785563e-02  -3.6467860595983109e-04 6.5558103933951409e-04 -1.8264056596633261e-02  -2.2654932324574521e-04 3.7611031412992707e-04 -1.8721110561105786e-02  -7.0396568160504750e-05 1.5231016594564832e-04 -1.3645916139433431e-02  -2.7773429307075524e-04 4.3298660764646109e-04 -1.5909205255646083e-02  -4.8574517485077610e-04 5.3177226513535347e-04 -1.4541070289005321e-02  -3.2060928066127538e-04 6.5700279818291869e-04 -1.7950482703504269e-02  -1.6184967901410453e-04 1.8262258688948906e-03 -1.4064224833599910e-02  -2.4271697245345614e-04 9.1982656321433454e-04 -1.7326523889776662e-02  -2.9672385443097930e-04 2.8976669011865293e-04 -1.7781154221468320e-02  -2.4688928530528740e-04 1.8406032560409086e-04 -1.6864114104443752e-02  -5.6371269125174092e-07 8.4889723147169800e-06 -4.0647550267019754e-05  -2.8084225662148406e-06 5.4228293873316362e-06 -3.1052956077288323e-05  -5.4152604154271390e-04 3.4591829324664465e-04 -1.5489349682409633e-02  2.4634723788054182e-04 -1.7633640874984617e-04 -1.2638855856627490e-02  8.1490734490470242e-05 7.8060810268194725e-05 -1.8606623772865889e-02  -4.3627095395380242e-05 1.0920385259540445e-04 -1.8248019649115804e-02  -3.7528446024496576e-05 6.1851197455420315e-05 -1.9392269676700734e-02  -7.5239857752298689e-05 9.9862748365548432e-05 -1.9323397215601057e-02  1.8835375468996499e-05 -4.9400023593382574e-06 -1.8875730497707584e-02  -7.6976538646773167e-06 6.8820906430751358e-06 -3.3158696677330940e-05  -8.1872413134842019e-07 4.7642659480162918e-06 -3.0837535746090222e-05  -8.1238818643146406e-05 6.1987818880144226e-06 -1.6599565450204554e-02  1.6890299097431131e-05 7.5079356713645320e-05 -1.8761349906646609e-02  -1.2060432619827250e-05 2.0726062982629980e-05 -9.2781867589004455e-05  -4.8977669191880148e-05 2.8271760867979753e-05 -1.1614055607404980e-04  -2.3166085624665661e-05 1.0726537369919885e-05 -6.8347275377818924e-05  -2.2586149203098784e-04 2.8701886276331532e-04 -1.5740745602166331e-02  -1.1685758237816419e-04 1.3677197657784696e-04 -1.8213763001071165e-02  -5.0294896456894099e-05 -1.0942349454989678e-05 -1.6559155840226093e-02  -6.9492813395497771e-05 6.2333742013884650e-05 -1.8763072127735071e-02  -1.6433701707616675e-05 -1.0914088133434623e-04 -1.6010090368698864e-02  -7.3031244085020912e-05 -1.2280108574517221e-04 -1.4549999875333319e-02  1.8309669216530901e-04 1.1905295919997233e-05 -1.4627817777602950e-02  -2.0927011210792174e-05 8.3252369730913131e-05 -1.7528140692935311e-02  -3.7149971075917961e-04 -3.1653059469610370e-04 -1.5107238675111052e-02  1.3296554683656141e-04 -1.7294598079503534e-04 -1.2635396773758838e-02  -1.0693442311301053e-04 -6.7646652384471392e-05 -1.6594317469345695e-02  1.1773290188939014e-05 1.2529434266747458e-04 -1.4964767423598174e-02  1.0699536616268581e-04 -2.6991331525577454e-05 -1.6165748791569345e-02  7.1097241932832763e-05 2.4726775202184111e-06 -1.3081033046439611e-02  1.0822334027281753e-04 7.6842186417272820e-05 -1.6180698640680124e-02  8.3203568098570976e-05 -5.3468010573572964e-06 -1.8014786005216589e-02  -8.0177480393170246e-05 5.7486670214196754e-06 -1.8521208391392121e-02  -1.0903673336535063e-04 9.9835662352222774e-05 -1.2473150458307694e-02  2.6541293356676115e-05 1.3968029075290318e-05 -1.8189227031114925e-02  -4.4160002988905533e-06 -3.4566863013486236e-05 -1.7179396722582459e-02  -3.6136559133509946e-05 6.1195645380193324e-05 -1.7992910355030835e-02  1.9708486361038312e-05 1.8891295145079078e-05 -1.9195794105264875e-02  -8.5688954751394179e-05 9.1616486675681131e-05 -1.9537696228877681e-02  -5.0410966848036254e-07 2.6064629996673507e-06 -7.2667460983300078e-06  -6.1301095961197129e-07 1.3431612934258661e-06 -9.9657419937092964e-06  -2.4051646603293564e-07 -1.5334764074513700e-06 -7.3871600407420619e-06  1.4611390781320580e-05 8.1211468317746527e-05 -1.3660545057962881e-02  -1.9091779012635895e-04 1.6858204124797158e-04 -4.7798193283255582e-04  -6.3753475527656989e-05 7.3550801193299949e-05 -1.9320230380228122e-04  -1.5831062034670892e-04 9.0293820857209541e-05 -2.1789835329027709e-04  -6.2489430448926832e-05 1.8383295263710490e-04 -2.6613498039420919e-04  -1.0221482274220875e-04 1.1131780648725058e-04 -1.8596325321835087e-02  9.9862303887338349e-05 1.1364552349546913e-04 -1.8669573433383477e-02  1.0405052319164446e-04 -5.2170213114189744e-05 -1.2147358824233293e-02  3.0305430243954418e-05 6.0216830161124719e-04 -1.5345545578978869e-02  2.8892595365058796e-04 5.8627735704387527e-05 -1.6626238332526626e-02  -1.2239147177569808e-04 2.5118105422830387e-04 -1.5366187083624682e-02  -4.3358438992255197e-04 2.6595908776185125e-04 -1.8062099744779386e-02  -3.0508497502332135e-06 4.9303216656807703e-07 -2.0940665707008882e-05  2.6399551877257790e-08 5.0963095419537502e-06 -1.9795639988065628e-05  4.0981752005225770e-04 -3.5621178295509339e-04 -1.4300833528248699e-02  -1.5621206593040922e-04 1.6459242817586426e-04 -9.1629105914799724e-03  -2.1114630642081675e-04 5.5867026430473396e-05 -1.7241303406161788e-02  -1.2004188693546904e-04 2.0425639537729765e-04 -1.8086392090415328e-02  -3.2817340353932077e-06 3.5233394365403953e-06 1.4820614803792889e-05  -2.2403400920963246e-05 6.9734333657718704e-06 -8.7928798098499807e-06  -5.9945500974848217e-05 1.0571109720497713e-05 -4.1126103445734486e-06  7.3857239724824973e-05 -4.5905016807795571e-06 -1.8312284954950492e-02  -6.1946716775117297e-06 -6.4311177744666263e-05 -1.8374076018154672e-02  4.2956997045691316e-05 1.0660980516028410e-05 -1.7726385311886465e-02  1.1655998803428592e-04 8.0452945743410406e-05 -1.5851089885389660e-02  4.5622388526084397e-05 -2.0284550225365468e-05 -1.5342240796838954e-02  4.6846803099830738e-07 1.7779354612248254e-05 -1.9317384506256609e-02  9.3711314998492775e-06 -9.2732969786177069e-06 -1.9219890815775232e-02  -3.5615509264451678e-05 -3.4832817937399697e-05 -1.6522671089683773e-02  -1.0652830826258556e-04 -5.5347926394663703e-05 -1.7404176261205925e-02  -4.2658306383645141e-06 2.2267346807118233e-05 -1.9457927370360714e-02  7.6530937428682410e-05 -1.5201079731660234e-04 -1.6748256269970865e-02  -1.1176755760369622e-06 -1.1231956003995191e-08 -1.0120303775552894e-05  -3.6880550713378616e-06 1.4701635271205716e-06 -1.1277662673596802e-05  3.6880283377201627e-04 -4.1232715285767610e-04 -1.3853456596507946e-02  -3.4736297614888681e-04 1.2167292023890985e-05 -1.3764230386188596e-02  -1.1640162493859241e-06 2.3441268778320306e-04 -1.7414404375135559e-02  -4.5062473863975218e-06 2.1083166219768736e-04 -1.7167100644105763e-02  4.1231665348776981e-05 1.4686309619860261e-04 -1.9175173309117277e-02  -6.2249098404366633e-07 -1.5682707786461074e-06 -1.2726155205232573e-05  -3.2306306514319541e-06 1.3069444712466158e-06 -1.1277120154946596e-05  -1.5967587932075361e-05 -1.1319145468570094e-04 -1.8832747239056615e-02  1.3791596196102216e-04 3.2280780860977274e-05 -1.4011293282443891e-02  -3.8879246794727942e-05 -7.4225438877496114e-05 -1.3048575718443041e-02  -8.1072134849637681e-05 1.6842984000463873e-04 -1.7428128832131871e-02  1.1883162201017457e-05 3.0415759814586343e-05 -1.9386169562213507e-02  1.2709724450672488e-06 2.6048041136690643e-07 -2.2973875599713674e-05  -1.3890810861021904e-07 7.0671980707431349e-07 -2.1361315674163564e-05  -7.9920306591439791e-07 6.7698475123157007e-08 -1.8431937146680607e-05  7.3623369144189388e-05 3.4607263296197232e-05 -1.5917950244236870e-02  2.6105274776875808e-05 2.2312320258687292e-05 -1.9027130256482640e-02  1.1987031320711470e-05 3.1019778527563701e-05 -1.9429056217433471e-02  -1.0617508087043433e-05 2.2506899380932001e-05 -1.6644249544599546e-02  4.6459111335582623e-05 2.7545189103501451e-05 -1.9139148292963506e-02  -4.3810693765783234e-05 -2.5143182657910762e-05 -1.9224105135167615e-02  7.6291325122508739e-06 1.1650125079683575e-05 -1.8401767224842366e-02  -3.5675806097420261e-06 -4.7848475450180394e-07 -1.6871230300703629e-05  -5.6340928971287955e-06 2.1993809362170653e-06 -1.7814075546861890e-05  -1.8163268267528128e-04 -7.1095270534213043e-05 -1.4651778319512605e-02  6.3410266365660073e-06 9.1261647331904313e-05 -1.4064621667010646e-02  1.4444033705893688e-04 -5.8779523144761256e-05 -1.7980973122778781e-02  6.7868560689631857e-05 -2.6652221515064099e-05 -1.8255139489329261e-02  -2.7055951691693992e-05 3.5251633392536044e-05 -1.8942982078845177e-02  4.3894797881547626e-05 -6.4378098269250741e-05 -1.6687106868261040e-02  1.0817018279850701e-04 -1.3953945712616024e-04 -1.6704522037735110e-02  -5.1066159162966429e-06 5.5248024892465310e-05 -1.5997579920700094e-02  4.8410660466595922e-04 -2.1190766067443010e-04 -1.6875084422661179e-02  7.9454748120915439e-05 1.1992502545397955e-05 -1.9318719317487614e-02  1.9553632816253841e-04 9.6942064660918148e-05 -1.9830521155702194e-02  1.1045635295681497e-04 1.7656715988348910e-05 -1.7697792968135877e-02  9.6048632499861277e-07 1.0711440514934083e-05 -1.9259980666554578e-02  1.2079903060402759e-04 -6.2937674046674945e-05 -1.9066609020892435e-02  5.2723270343588603e-05 -9.6159620290142505e-05 -1.9274010597320292e-02  2.3432634257555654e-05 -2.2379261811282469e-05 -1.9407294704535800e-02  7.0449856666347210e-05 4.7690731406450669e-05 -1.7103986970330620e-02  -3.9667748219326847e-05 4.0827516095112305e-05 -1.7397176473153333e-02  8.2001129891956948e-05 -4.4521242397944242e-05 -1.1368869519922449e-02  2.7423633411445238e-06 -2.3379969163755357e-05 -1.6448742890266085e-02  -2.0973241002950016e-05 -1.1135530144727907e-04 -1.8926833085791440e-02  -1.7155609716461864e-04 -1.8647442144247502e-04 -1.7832368446212790e-02  -4.4687114535054850e-07 1.9318196922446577e-04 -1.7151424763526602e-02  -1.5330103983067416e-04 4.1732460012759899e-05 -1.4898965001851535e-02  -3.5993906469080698e-05 -7.5946171326027944e-05 -1.8249180506748664e-02  -8.4931940786152219e-05 -1.2733401790040389e-04 -1.3019704266227299e-02  -8.9795541186815880e-04 2.3896759854352377e-03 -1.4007535377978515e-02  -1.4525206451226180e-03 1.4674991960443363e-03 -1.3505340326951550e-02  -3.3047579983404486e-04 2.2211511511706098e-04 -1.8070592855178799e-02  -1.8837927586107762e-03 2.4505231998638703e-03 -1.6411648483758971e-02  1.7874956361667858e-04 5.3410657496020880e-04 -1.7507342850512624e-02  1.6412011188857807e-04 4.2681738093313716e-04 -1.5923371092413673e-02  2.1983843830159337e-06 4.2265093493437463e-06 -5.2168212842509923e-06  5.6961076713147235e-06 -4.2463295852979646e-06 -1.2036807252076356e-06  -2.0109298366426480e-06 5.4600857466690936e-06 -4.6302846006102656e-06  1.8275284891630395e-04 -7.7679693118071102e-05 -1.5342718207168720e-02  -3.5076967058015826e-04 1.0228552339766664e-04 -1.7147947376281780e-02  -2.6940852703560343e-04 2.5814140250071530e-04 -1.6036257425930300e-02  -6.0269177754218128e-04 6.1822450037663694e-04 -1.5821829459032394e-02  4.0022947999600702e-04 3.3841335916698671e-04 -1.5318070938024208e-02  -2.2635383878185289e-04 -6.6375872342579519e-06 -1.7766051128499084e-02  -2.5010837889477658e-04 -2.0852856748404845e-04 -1.7112812903749167e-02  7.2881176975017712e-05 -2.5971072789501530e-05 -1.4245665587179860e-02  -1.3640075770278190e-04 -4.0705184006588420e-05 -1.5362143773022531e-02  1.4171862650249887e-06 3.3077831004680065e-06 -2.2784644853467452e-05  -6.0619987795717517e-07 3.0297521752671220e-06 -2.2601958522619884e-05  3.0417210017657609e-05 4.4292730098146655e-04 -1.7175886452322393e-02  2.9338136004052718e-06 2.0689588058421303e-06 -1.44898049