<?xml version="1.0"?>
<VTKFile type="UnstructuredGrid"  version="0.1"  >
<UnstructuredGrid>
<Piece  NumberOfPoints="857" NumberOfCells="3763">
<Points>
<DataArray  type="Float64"  NumberOfComponents="3"  format="ascii">-0.0182597916573 0.126128911972 -0.119588643312  -0.0077641364187 0.0512270443141 -0.07050477713349999  -0.0237180162221 0.16240182519 -0.053058128804  -0.107877351344 0.105669431388 -0.0502408407629  -0.0444478429854 0.116080775857 -0.00235075876117  0.0393674038351 0.112876079977 -0.0491501875222  0.0248903874308 0.0489483103156 0.000152088920004  0.0314915925264 0.114928804338 0.0218031276017  -0.0657326281071 0.0685198307037 0.0497140102088  -0.0355357266963 0.164656624198 0.0508319064975  -0.010538729839 -0.0422629192472 -0.208358153701  -0.0239527057856 0.0135364839807 -0.242119863629  -0.0194642152637 -0.0775559768081 -0.263431429863  -0.08492307364939999 -0.0108216870576 -0.280446648598  -0.08293507993220001 -0.0361198186874 -0.159778758883  -0.0240796487778 -0.0824203491211 -0.148982465267  0.0430508553982 -0.121076337993 -0.234084427357  0.0307756774127 0.0324950888753 -0.198437720537  0.00352357281372 -0.00433266581967 -0.144715368748  -0.0456651262939 0.08372022956609999 0.342343091965  -0.116630032659 0.0117083769292 0.386158525944  -0.08223126828669999 0.0577075146139 0.289406776428  -0.0511222109199 0.00205342215486 0.300772219896  -0.0125984866172 0.0267426930368 0.351842552423  0.0303636882454 0.0561947338283 0.391145974398  -0.0524924062192 0.0543583929539 0.40361738205  -0.07944945245979999 0.130002260208 0.441037595272  -0.000730989675503 0.119443200529 0.385622620583  -0.078488714993 0.137875169516 0.332541137934  0.0142801422626 0.110509291291 0.27100610733  0.0224165506661 0.08303219079970001 0.331783413887  -0.0170432701707 0.161798536777 0.30022162199  0.000811119796708 -0.0515509881079 -0.08419398218390001  0.0888616070151 -0.015075173229 -0.0776951387525  -0.0989535748959 -0.0518730916083 -0.08125374466180001  -0.0433920919895 -0.09785594791170001 0.0106235472485  -0.0488061010838 0.0295096840709 -0.0131453983486  -0.25 0.25 0.5  -0.166666666667 0.25 0.5  -0.25 0.195066730511 0.445658150344  -0.19506166517 0.25 0.445542865294  -0.0213422998786 -0.126349791884 -0.045622177422  -0.117952652276 0.0158270020038 -0.16616243124  -0.0531469397247 0.0490713231266 -0.13630309701  0.0358348339796 -0.131537660956 -0.134171053767  0.0583617314696 -0.115307979286 -0.0462360456586  0.010585160926 -0.0606908276677 0.314250290394  0.078067921102 -0.133790805936 0.331458956003  0.0206208750606 -0.104583717883 0.36723652482  0.0300164371729 -0.13569638133 0.270959883928  0.0797956883907 -0.07311873137949999 0.388136893511  0.0291880238801 -0.0850581228733 0.220644980669  0.0788302049041 -0.07555303722620001 0.284453928471  -0.0465739220381 -0.108428947628 0.305151432753  -0.056692365557 -0.0812899768353 0.234353885055  0.10282895714 0.0630551427603 -0.0452189296484  0.178613707423 0.153893724084 -0.0703043565154  0.0750898644328 0.130835875869 -0.116260357201  0.0179002508521 -0.0400723591447 0.396018892527  0.07961820065980001 -0.020668130368 0.232235535979  -0.00726175494492 -0.022667773068 0.242156982422  0.0524490773678 0.0171752162278 0.310696065426  0.0103002395481 0.0813155695796 0.107229083776  0.00225681974553 -0.008687185123560001 0.0457225777209  0.177950121638 0.25 0.0405701099774  0.151375159621 0.202163234353 -0.00268407491967  0.13042794168 0.172564610839 0.0599601529539  0.184557154775 0.16295710206 -0.00737970136106  0.0827306732535 0.011830884032 0.0299163535237  0.106673434377 0.0676268041134 0.0663062110543  0.25 0.25 0  0.25 0.177947182503 0.0435581305687  0.0251978598535 -0.0201241951436 -0.0233656335622  -0.25 -0.25 0.25  -0.175495340629 -0.25 0.295351832328  -0.25 -0.175776260788 0.294629825204  -0.164853364229 -0.189889326692 0.246240898967  0.111295968676 0.25 -0.00354384794953  0.0417815256417 0.25 0.0264120515999  0.0577150444892 0.25 -0.0418173710713  0.035034801811 0.196921139956 -0.0497792549431  -0.115254960954 0.0352221727371 -0.0357825122774  0.0360979661345 0.0743419006467 -0.130612716079  0.08110298216340001 0.0143552683294 -0.135737240314  0.0281950440258 0.110801942647 -0.38559025526  -0.000352636008756 0.154027625918 -0.45018479228  0.0220217909664 0.07910815626379999 -0.445265561342  -0.041934799403 0.09297795593740001 -0.440330862999  -0.115356497467 0.128115877509 0.0303980205208  -0.08144567906859999 0.192924261093 -0.0396481454372  -0.0503155887127 -0.140062868595 0.370642662048  0.0181560348719 -0.191118896008 0.319997102022  -0.09442232549189999 -0.0766885429621 0.347179293633  -0.10306725651 -0.0245223585516 0.261891931295  -0.0371639840305 -0.192689821124 0.258922994137  -0.08778057992460001 -0.193450272083 0.293951839209  -0.116932563484 -0.137108251452 0.278956532478  -0.0434515699744 -0.19969072938 0.340430229902  -0.016621209681 -0.143479332328 0.208528921008  -0.0799133181572 -0.177766740322 0.206858798862  -0.0340202823281 -0.07231882214550001 0.405357718468  -0.153045728803 -0.0703692808747 0.28540495038  -0.0647673308849 -0.069349065423 -0.297796696424  -0.0468406006694 -0.118580199778 -0.331259429455  -0.0636249184608 -0.122360698879 -0.235275790095  -0.137311711907 -0.115820750594 -0.279358655214  -0.25 -0.25 0.333333333333  -0.00222280388698 -0.0275516584516 -0.327156513929  0.0233143884689 -0.124395690858 -0.330935031176  -0.00544846989214 -0.0444226972759 -0.392852008343  -0.07202984392639999 -0.0450558848679 -0.379192590714  -0.128861442208 -0.0482712239027 -0.325591087341  -0.0319190612757 0.25 0.27473160228  0.0259018652141 0.196524605155 0.343851953745  -0.0424101948738 0.196461260319 0.324036180973  -0.08801463991400001 0.193724930286 0.280150324106  -0.051391992718 0.129726842046 0.244459152222  0.0793330296874 0.131078347564 0.273738384247  0.0304427426308 0.197590425611 0.258007407188  0.139736711979 -0.103549621999 0.308288753033  0.117407329381 -0.00031748006586 0.284001767635  0.17845864594 0.0137020656839 0.2717012465  0.133446916938 -0.07468281686309999 0.252671837807  0.193237304688 0.0103836003691 0.32706490159  0.108656100929 -0.016409387812 0.370573759079  0.195593327284 -0.0705924406648 0.374003827572  0.204297035933 -0.0882691517472 0.283604085445  0.15987212956 -0.0232784096152 0.211559042335  0.103109702468 -0.0715631917119 0.185957938433  0.25 -0.177950121638 0.0405701099774  0.25 -0.111295968676 -0.00354384794953  0.168315500021 -0.181550845504 -0.0129796266556  0.203061833978 -0.0839376300573 0.0201103240252  -0.123973377049 0.0421161539853 0.0831994190812  0.10652089864 0.041568480432 0.133020982146  -0.00508088478819 0.00464248098433 0.118765294552  0.0384838804603 0.0542355030775 0.219570666552  0.0556482039392 0.09942726045850001 0.165778696537  0.25 -0.25 0  0.25 -0.17904445884 -0.0421267671166  0.0085972994566 0.139411628246 0.206887423992  -0.0427397117019 0.0734880268574 0.199836358428  0.25 -0.25 0.166666666667  0.177338154858 -0.25 0.209433902167  0.178222204231 -0.25 0.126578397361  0.180748909712 -0.154124230146 0.180074676871  0.118582360446 0.0498475395143 0.233844980597  0.113276541233 0.115120351315 0.208414897323  0.068451166153 0.123325429857 0.09300038218499999  0.08695217221980001 0.18308262527 0.11987875402  0.1366494596 0.0978636816144 0.125807240605  0.0170362386853 0.165571182966 0.116205818951  -0.075325883925 -0.13042730093 -0.120773427188  -0.191016584635 -0.1764793396 -0.0778442546725  -0.102759346366 -0.20253264904 -0.07015967369080001  -0.126150563359 -0.115044787526 -0.0573479756713  -0.138729035854 -0.104583211243 -0.134180948138  -0.147993162274 -0.138949289918 -0.203295826912  -0.180331096053 -0.192031860352 -0.160557568073  -0.194399222732 -0.0846866071224 -0.148938387632  -0.11259970814 -0.078034222126 -0.193649172783  0.0326924659312 -0.122268341482 0.0296003930271  0.0215157996863 -0.180560961366 -0.0757267251611  0.0956164896488 -0.0493310950696 -0.0164182558656  0.112129375339 -0.112067811191 -0.105549775064  0.127802968025 -0.106147237122 -0.0110959038138  -0.0854129120708 -0.015297700651 0.056893799454  -0.0204317308962 -0.0795602425933 0.117458000779  -0.178222204231 0.25 0.126578397361  -0.177947182503 0.25 0.0435581305687  -0.107976816083 0.25 0.0905854563709  -0.157577678561 0.178241759539 0.0969507619739  0.25 -0.25 0.333333333333  0.25 -0.25 0.25  0.175776260788 -0.25 0.294629825204  0.25 -0.175495340629 0.295351832328  0.0932372882962 -0.0430554822087 0.0724518448114  -0.044769000262 -0.00661279587075 0.403999477625  -0.194478780031 -0.0247275307775 0.332954645157  -0.173761367798 -0.0806607827544 0.396263659  -0.137637495995 0.00523930834606 0.315887242556  0.0864742994308 -0.139340251684 0.176064118743  0.105438224971 -0.136641919613 0.253711819649  0.0308670303835 -0.25 -0.136809572586  0.0367561832589 -0.25 -0.219583441074  0.0925811678171 -0.20055809617 -0.19996842742  0.0127155454829 -0.193433105946 -0.225977659225  0.0415658205748 -0.200880005956 0.196522325277  0.0373581312597 -0.119548290968 0.120048768818  -0.0954102815882 -0.25 0.346414074494  -0.101368582479 -0.25 0.251933327382  -0.0374909392175 -0.25 0.286229296012  0.0852289572358 0.109103307128 -0.27055695653  0.07707493752239999 0.127253636718 -0.199824258685  0.128097131848 0.07648140937090001 -0.209757223725  0.154867321253 0.13628205657 -0.212952241302  0.08678253740069999 0.189277544618 -0.274375885725  0.127699971199 0.0803090333939 -0.326344817877  0.0577741526067 0.0601542405784 -0.31936660409  0.0525139421225 0.129102528095 -0.326874881983  0.0251371748745 0.175572559237 -0.261228203773  0.0199144631624 0.0927290171385 -0.265960127115  -0.148952946067 -0.121583275497 -0.374568909407  -0.25 0.177950121638 0.0405701099774  -0.25 0.111295968676 -0.00354384794953  -0.175531774759 0.135734900832 0.0562076568604  -0.178730383515 0.191659659147 -0.00562386959791  -0.0244714934379 -0.108516678214 -0.387223660946  -0.09279609471560001 -0.170035287738 -0.445968538523  -0.0281062982976 -0.0
[...]
<PointData  Vectors="f_78"> 
<DataArray  type="Float64"  Name="f_78"  NumberOfComponents="3" format="ascii">4.3430614141630936e-06 2.7759682721802040e-06 -4.6197771344075140e-03  -1.6219562542479257e-06 2.4622182448060916e-06 -4.6846480386359603e-03  1.5261013052903530e-06 -4.3836072043873932e-06 -4.4568688828669619e-03  -1.3904731879898002e-05 6.2472001652004874e-06 -4.2888326471230394e-03  -9.9704853922166660e-06 2.8834568897014905e-06 -4.6011472700031543e-03  1.2458752003775669e-06 8.6366354843915495e-06 -4.4851099149397907e-03  -3.0085999245333479e-06 2.7534081243479692e-06 -4.7139684615245137e-03  -2.1175726868495407e-06 6.2334360723871753e-06 -4.4397501406477843e-03  -8.1083696328991696e-06 -2.1668946997657473e-06 -4.6634696954968389e-03  -4.3084082573750695e-06 5.5710223634585598e-08 -3.8838080303291956e-03  -1.2706877814022382e-06 4.8766780116274898e-06 -4.7286582299864354e-03  -1.7173974426151455e-06 -1.9779375758384821e-07 -4.7161431433299025e-03  8.3941981916016129e-07 5.7740555190908371e-06 -4.6750200517007698e-03  -1.0446494544487237e-06 4.7407553801916742e-06 -4.6823893868897723e-03  1.9670044725331286e-06 3.1460101244783042e-06 -4.6456358225860344e-03  1.3380079121214042e-06 1.1554235177058557e-06 -4.6383242277802791e-03  6.1245354639325265e-06 3.9666570155104899e-06 -4.4545219082715252e-03  2.4951625110122366e-06 1.1356585938538192e-06 -4.7230914328667429e-03  1.9463314684055358e-06 9.5191012608329948e-07 -4.7116762351738367e-03  -1.6599068060311437e-05 4.8216547711258272e-05 -4.7850119305023727e-03  -7.6301596079724127e-05 1.6405655724762980e-05 -4.6047655078231978e-03  -2.0864230586536473e-05 2.1426269467152230e-05 -4.6398919203641141e-03  -1.8519020591297398e-05 1.5232714562200635e-05 -4.7587268183081214e-03  -1.0887551073642513e-05 4.8023852140001879e-06 -4.8059600806171715e-03  4.0369982593348300e-05 2.6339457593105985e-05 -4.7849627065026587e-03  -3.0045900998405538e-05 5.2101228857484648e-05 -4.9049291861722076e-03  -2.4856498682958372e-05 1.2979808291695605e-04 -4.1290321731792187e-03  -6.4400942633117958e-06 1.1286979474786781e-04 -4.3668287483118106e-03  -4.8383038998105818e-05 5.9253394346324072e-05 -4.5909179298482200e-03  -7.7892130204588379e-06 1.9324645373036855e-05 -4.6824267274062706e-03  6.1547919041347106e-06 4.4379781873425640e-05 -4.6854135780833054e-03  -3.5653144522407296e-06 2.1275017421779824e-05 -4.6804575656369954e-03  -1.9930897824439524e-06 1.9964269000707762e-06 -4.6829331975363772e-03  -2.0660462259775832e-06 -1.4453363298860810e-07 -4.5769041629622458e-03  -5.3026855100398777e-06 -1.4499717781838663e-06 -4.5585377830773223e-03  -8.0813182203835319e-06 1.4358021648131411e-06 -4.6416448420102405e-03  -3.6168751450589171e-06 2.8828923291737523e-06 -4.6718456388166315e-03  8.2663230523919020e-06 -5.1565579761821806e-06 1.4691526163739371e-05  5.9104209406793648e-06 -8.3539228484374803e-06 8.8756965171514507e-06  9.1422195311346055e-06 -2.0492974414434704e-06 9.7175566953141959e-06  2.6484781758134302e-06 -1.8969663419948052e-06 5.5615662920091051e-06  -6.3560841430458734e-06 3.2411189705200056e-06 -4.3748581723146024e-03  2.8802842462089533e-06 4.2522460341857091e-06 -4.5927807815174596e-03  1.4428500347905555e-06 3.5967876637043755e-06 -4.6891069278713780e-03  1.0400931469724774e-06 -1.5052696821199419e-06 -4.5972763041941915e-03  -5.7294078846641710e-07 -2.6627165458677828e-06 -4.4341411665771418e-03  -2.7023401755315018e-06 -7.5610987862135768e-06 -4.7969448876815741e-03  -3.5029785783435813e-06 -2.5147677374604384e-05 -4.5905210619782361e-03  -3.8029548929046855e-05 -4.7473018761449531e-05 -4.6487369284621384e-03  -1.2368562862486731e-05 -4.2432699461694724e-06 -4.4733159370724312e-03  4.1959820242218882e-05 -4.0748625732258268e-05 -4.7055588280986820e-03  -6.9566907810444821e-06 -3.6267069689563508e-06 -4.7044919371883737e-03  6.0902170169397321e-07 7.2323703389894759e-07 -4.6560840402549604e-03  -2.0674973247767661e-05 -2.2738421934854272e-05 -4.4638983563613528e-03  -1.6584242669614328e-05 -4.7406149637211555e-06 -4.6566048732914903e-03  -4.3805479981389486e-06 8.5602252391208839e-06 -4.4837426988701854e-03  1.4283385104371839e-05 2.4161544043223667e-05 -2.9025975801464563e-03  1.7857698743987462e-06 2.2499016597461434e-07 -4.1144321161861773e-03  -5.8145620075537598e-06 8.3416346511761459e-06 -4.8938096757039449e-03  -1.6480714968699986e-06 4.2485813671843933e-06 -4.6902357616805087e-03  -5.8328146367857252e-06 4.8103980732845046e-06 -4.7367283733552052e-03  6.2591502308591009e-06 1.7099747141041472e-05 -4.7570094131520755e-03  -3.9849677269161263e-06 5.5834029143797342e-06 -4.6217042057172244e-03  -5.7601196195017521e-06 2.0094545966578647e-06 -4.7365017586792971e-03  2.5333476782396141e-06 -7.0073392112771236e-06 -1.2201607439940132e-07  3.6590173870666244e-05 -2.0611869999300759e-06 -2.8819122835100496e-03  -1.5954888333173653e-05 -3.8484163366169816e-06 -3.5302032512811036e-03  -1.5734637098673028e-05 -3.1697354777033370e-07 -2.9463606812456925e-03  -3.0120120135236993e-06 7.1622180391458774e-06 -4.6604050297835526e-03  -5.4161935164159987e-06 7.0876183500388572e-06 -4.6069297381125911e-03  7.0466862848369783e-06 6.9034456791461615e-06 2.1120174601801386e-06  -7.1751795635296319e-06 1.7549402212473639e-06 -5.2314860999684359e-07  -2.6779569950728889e-06 1.4937141389591986e-06 -4.7237562510427837e-03  -9.3540593255400814e-06 -6.4145591888675609e-06 -1.7888018778642293e-06  -2.0700200549124588e-06 6.4292099096400025e-06 -1.8732681058460477e-07  9.5655239825835364e-06 -3.2145724036781941e-07 -1.2429104382756059e-07  -2.0255016334011893e-06 -2.2140646614658957e-05 -2.1854301890608069e-03  1.9798093710763442e-06 1.7773195751547979e-06 2.6683309278378498e-06  -3.8808035914335540e-07 -2.9679892205628393e-07 5.5353431102273100e-07  3.6926272253732672e-07 -1.6086478017438785e-06 8.1468122962531508e-07  -4.1282554699639142e-06 1.1950941454605635e-05 -3.4214892822562785e-03  -1.0033746029900093e-05 -6.5007766716953768e-07 -4.4548090630262670e-03  1.5506375268432619e-06 7.5168114456189374e-07 -4.6618908050304981e-03  4.7441634985823654e-06 2.4099299503686787e-06 -4.6069215522176214e-03  -3.1271000092424835e-06 -9.4423177013974100e-06 -4.5325094504797200e-03  1.1050725164522315e-05 -2.9117337598837184e-05 -3.5185292624780452e-03  2.0311483345159656e-06 -3.6913083072185666e-06 -4.6788780695593279e-03  4.6562478433764295e-06 -2.1390954045624501e-05 -4.5203696892665707e-03  -3.8067533837830893e-06 -5.9048630578859102e-06 -4.2627005454897995e-03  -3.2529854633561192e-05 1.9788083350575056e-05 -2.9938747746497654e-03  -1.0943126072057687e-05 -6.2693875688668582e-05 -4.3042676186169594e-03  -1.1882057554762028e-05 -7.9508624744446631e-06 -3.5628148859117221e-03  -3.5686941633155974e-05 -2.3133900619831859e-05 -4.4293960326977216e-03  -1.9195176616413936e-05 -4.8870402834564708e-06 -4.6432673609376777e-03  -2.7868949301019847e-05 1.5609876820022133e-06 -3.5128900361411320e-03  -2.6458057960608569e-05 -7.3584696405462193e-05 -3.2061790947977421e-03  -3.7772039372247762e-05 -2.4074928111791028e-05 -4.1226469904508036e-03  1.6018528769984763e-05 -3.3889691925795712e-05 -3.1653972863792449e-03  -5.9847714832747756e-06 3.2208153031976173e-06 -4.6582997135634656e-03  -5.9425214583797731e-06 1.3849639577611674e-05 -3.8004379042811116e-03  -3.8975969099011080e-05 -2.1008682754359372e-05 -4.7514217300807220e-03  -1.0039860225023289e-05 1.0360762448543733e-05 -3.5834155797626745e-03  1.3255633303241623e-06 7.7204052144251083e-06 -4.6356400050164047e-03  1.8156740776637354e-06 7.3760151086578189e-06 -4.4529360060198107e-03  2.0536283653297393e-06 -6.6085539489286291e-07 -4.3857867623629358e-03  5.3539103476370658e-07 1.2855279905148138e-05 -4.2224470021065465e-03  -6.1064655478275027e-07 -1.4024268283143748e-06 4.0054345136933642e-06  2.2742140461134483e-06 2.1954323504980406e-06 -4.7014189706723565e-03  -3.4924131282563647e-06 9.4830684679940126e-06 -4.6131938902198655e-03  1.6486557643581921e-06 1.2252832959902513e-05 -4.6425626191089206e-03  1.5219515041883656e-06 8.0705287949951817e-06 -4.5627629259504454e-03  6.7597859127253014e-06 2.0146969122021908e-06 -4.2909763672415550e-03  5.4942224745089766e-07 2.0825157183161275e-06 -1.1162745541744040e-07  2.2828814393517500e-05 7.8454130466286068e-05 -3.6967877941288083e-03  -3.1799586510586075e-05 1.0703050949006136e-04 -2.9122354545914018e-03  1.2925319203923208e-05 7.4634708046971769e-06 -2.9388142438422546e-03  -9.4791483032689524e-06 1.8395325364195932e-05 -4.5808770051103953e-03  1.0828493085349235e-06 2.1069914904164996e-05 -4.2692870081548198e-03  4.0771503635430974e-06 -2.7287853056418078e-05 -3.6259550063602497e-03  2.8955112645266209e-05 -3.6515154534239008e-06 -4.3201232311743483e-03  1.4685035455285561e-05 2.3187812465426357e-05 -4.6440251114614473e-03  -4.2278096070309254e-06 1.1589956336304961e-05 -3.6314294285427580e-03  -2.0232424212200197e-05 1.6102928760037139e-06 -4.0392031194284393e-03  1.1376276085375328e-05 8.1122793451217222e-06 -3.5881146537484277e-03  5.7439806793329657e-05 1.6940208353071745e-05 -4.5534246954695894e-03  9.7129699321847648e-05 2.4196456646902468e-05 -3.2029802924798301e-03  1.2701084193847558e-05 3.2827381472145467e-05 -3.6295703204526943e-03  -1.4822677878749174e-05 7.6810211382581681e-06 -4.4221365047119581e-03  -1.0191118009372635e-05 3.4577272353591260e-06 -4.3360607319772523e-03  -1.5277978187726092e-06 -3.4989922937686851e-06 -1.5123784925667445e-06  4.0250553453128363e-06 2.2588989468271883e-07 -2.0061292699560155e-06  -3.4504504805405255e-05 3.0238188306674186e-05 -2.7036304762057578e-03  2.2567931082683798e-05 -6.2684881666069676e-06 -2.8400558751756396e-03  6.0653389453334814e-06 3.7755674671311501e-06 -4.4109586986013404e-03  2.8351485466550850e-06 6.8375293724054150e-06 -4.5328620843625720e-03  -4.1746293132304859e-06 4.4674863759960043e-06 -4.6994001240365053e-03  -1.6900363503409831e-06 1.0118387289324927e-05 -4.7033840166565604e-03  -1.3356804075553471e-06 5.8647532777886673e-06 -4.6505891263100754e-03  4.6084477329939175e-06 -6.6772891616269632e-06 4.0406579549491884e-06  -1.1610221328742652e-05 -1.3146110275003006e-06 -2.8859700725957897e-06  5.6050432634060729e-07 2.8360895828374919e-06 -4.2378630308330632e-03  -5.6698453951976170e-06 1.1573803807941449e-05 -4.6468064459132133e-03  7.4244836366811349e-06 -9.0525569278932586e-06 -7.7041764846106929e-07  2.2848814590839055e-06 6.3994244555531434e-06 -5.7105106115284302e-07  1.8780057099121214e-06 9.1326181050924913e-06 2.3316207545194869e-06  -5.5345287390953051e-06 1.5873420513455019e-05 -3.2627568334404064e-03  6.4909388324432975e-06 1.7983091770024784e-05 -4.4623173131440961e-03  4.4162805590665970e-06 9.9175085351868864e-06 -4.0659216351137915e-03  -1.8361549047910468e-06 5.6997511244995845e-06 -4.4254887594927413e-03  8.7074871186602293e-06 -8.0343457016442498e-06 -3.5125865155304311e-03  -3.9888362822266084e-06 -1.2961253239678705e-05 -3.8296284199357800e-03  2.0199103073386751e-05 7.9961108359284320e-06 -3.6193497737917022e-03  -4.1548350592073145e-06 6.4465729697493149e-06 -4.2631633331937646e-03  -1.7449770443998809e-05 -1.4909453028074514e-05 -3.0638015525348830e-03  7.8009304926681949e-06 -2.3932083718810097e-05 -2.7721329814258022e-03  -1.9630685206284372e-05 -1.7480652350996476e-05 -4.1511803001948490e-03  5.5909602344396498e-06 9.6852179984213247e-06 -4.0119039708635595e-03  5.7378833169148360e-06 1.0059723301182587e-06 -4.1300985904150402e-03  2.1555377423226254e-05 9.5300309176769831e-06 -2.7176543641687593e-03  -3.0765506234318172e-05 -3.4669395335137019e-05 -3.1390533020737598e-03  1.8049354391952574e-06 9.9990494738070658e-07 -4.4393320247668863e-03  -5.2730990581459346e-06 -2.2419129674792498e-06 -4.4532717981219314e-03  -8.7190535090464630e-06 5.1703095163975766e-06 -2.8438655670106113e-03  4.6924178713630488e-06 -2.4525802090396735e-06 -4.5253001608227929e-03  2.4799283384980451e-06 -6.3305430991405054e-06 -4.2304403281056826e-03  -1.9305924372639577e-06 7.1604678502499954e-06 -4.1959707029695153e-03  -3.6979135432984905e-06 -3.2630139924548915e-07 -4.6497703990476995e-03  -7.5980885731084669e-06 -7.0496528043213765e-07 -4.7071797310763676e-03  -2.2049626210537128e-06 -8.4970250740598296e-06 1.0901776543676803e-06  -1.0862619897289434e-06 -1.0458900818083236e-05 2.1533036521429635e-07  3.8229324307497296e-06 3.4400955482122121e-06 1.7596015518717560e-06  -6.1434419534185710e-07 -2.0051308397717755e-05 -3.1084672961504741e-03  7.6346024977465822e-06 -4.5475404051456973e-06 8.3309960952518719e-07  5.4135762262751740e-06 -8.0948092003638772e-06 -8.0850314263469400e-07  1.9889465739961802e-06 7.1098018657765035e-06 -8.1120514801334037e-08  -6.2996411716164369e-06 -2.3301678708738240e-06 -1.4733686127047414e-06  -8.3504072452600972e-06 2.5904650632322543e-06 -4.5956146895157870e-03  -3.0328203461002422e-05 5.5372515987945375e-06 -4.8521136246022110e-03  -4.3793907248899873e-05 -3.4302941942127763e-05 -2.7941780724436275e-03  -1.0271989450272629e-04 -3.5509430078711226e-05 -3.6991752515172145e-03  -5.5676155136774372e-06 -3.2212547777610897e-06 -4.4032885790997725e-03  -7.8634649675186440e-06 8.8425997310270413e-06 -4.2236417227874698e-03  -2.9772609358504115e-06 -7.4269393291330873e-06 -4.3360777318204938e-03  3.1065357331808542e-07 -1.9525636898198102e-06 1.4663725769293369e-06  1.9873181716656391e-06 5.6961792650079488e-06 1.8890201146063038e-06  1.4462484409038372e-05 -4.0866916954561155e-05 -2.9189492248868861e-03  -3.3111342321924133e-06 -1.3926922369680927e-05 -2.5898557734400393e-03  -9.4507605178588067e-06 -8.7512913337922157e-06 -3.7716537578214894e-03  -3.0314085442301968e-06 9.3170875199022471e-06 -4.3982308302942261e-03  3.3781984243982689e-07 6.6162205961846075e-06 2.9343843167503768e-06  1.2029043467842401e-06 -1.7898820749327162e-06 8.0466427728219804e-07  -1.0424217672462992e-06 -3.2920608263218613e-06 -1.0569466447278010e-07  7.1708293137097712e-06 -1.9974658302301137e-06 -4.6014438726376949e-03  3.5718703666153482e-06 -5.2803993778719298e-06 -4.5364327702101257e-03  6.5829130261530552e-06 2.9519267576795237e-06 -4.3625277996985944e-03  2.5883415461528091e-05 1.1085805884196399e-05 -4.0430227817142223e-03  3.7074260042488051e-06 -1.1171597646448549e-05 -3.8061887896486046e-03  1.6854436312896884e-06 -9.3276303031288405e-07 -4.4623154118476225e-03  1.0624347677832914e-06 -4.0034675066326044e-06 -4.6680769443445663e-03  -5.2106677916149464e-06 -1.0853635216198912e-05 -4.1935567906651464e-03  -3.4266010248631939e-07 -3.6262110662259501e-06 -4.5056334087937430e-03  8.8915530330271196e-07 -1.9482159037085918e-06 -4.6712757040497377e-03  1.4549599014329820e-05 1.5993027538167119e-06 -4.1616535476672548e-03  7.5781659013339991e-06 4.9322677268049761e-07 9.8199547512158848e-07  -6.4906694182659431e-06 -2.0327747729301169e-06 9.6152626480191299e-07  6.5705422442238314e-06 -1.7453493794982036e-05 -2.8461038038382308e-03  -1.0011291229522465e-05 -6.8866167424463476e-06 -2.9238231569513030e-03  1.7634084786996258e-07 4.0933762591104423e-05 -4.3443265000430650e-03  5.1267186327839894e-06 2.1150637713660262e-05 -3.9514205033303849e-03  7.9400107237003144e-06 1.9431256186375815e-05 -4.5809946460364194e-03  -8.9493958319826345e-06 7.5776171693407470e-06 9.4193330612083946e-07  8.8406051366095788e-06 1.1180950097847702e-06 7.6943096314908317e-07  7.0889707766150392e-06 -9.1921188172226126e-06 -4.6165287026046688e-03  6.9181981032765365e-06 3.2170525358097797e-07 -3.4572513513052711e-03  -5.7274360997036770e-06 -1.0522772301032040e-05 -2.9946420832443789e-03  -4.5474196897958582e-06 1.1748387127996912e-05 -3.9272806873098315e-03  2.7525220072925624e-06 2.6514542195082151e-06 -4.6848141306944967e-03  3.9793516522937908e-07 7.9929700498454033e-07 -3.9104535591756686e-06  -1.0397399718955468e-08 1.7572128533362456e-06 -2.5205595438867299e-06  -5.6010687706338062e-07 -1.8479606090867507e-07 8.5315556304350181e-07  7.0770927456499824e-06 -6.1549058559251818e-06 -3.5212121036035339e-03  4.2561757012467202e-06 1.6910246647631689e-06 -4.6781215596629509e-03  1.9428786124823086e-06 2.8378073427832830e-06 -4.6848553764565568e-03  -1.2472055984052393e-06 -5.0769070790683505e-07 -4.1561247782320740e-03  1.1771164326634127e-05 2.1322040616338982e-06 -4.6057326565669661e-03  -6.5450662042119706e-08 -3.9330480372730080e-06 -4.6592892700611805e-03  -1.4766271293805306e-06 -5.5636879589399262e-08 -4.5489646451653759e-03  -2.0341540446123588e-06 5.5767360803073170e-06 4.7085640356234237e-07  1.3490383650268186e-07 -4.6095092432275641e-06 1.3838952865484693e-07  2.9746744227377664e-06 -1.0017297556766904e-05 -2.9975829940348392e-03  1.0032049922455744e-06 -1.0221337799771452e-06 -3.3175864471048414e-03  1.0940701441900246e-05 -7.5257976615773530e-07 -4.5790211079519564e-03  5.5764694944012535e-06 -2.2833255664730599e-06 -4.4817920052976218e-03  -1.1723749401210007e-05 -1.9411873371084451e-06 -4.6462180880795000e-03  5.0305670706262546e-07 8.4350284918480884e-07 -4.3093430753552301e-03  -1.3854858983307452e-05 1.6352883418668464e-05 -4.0880680272713053e-03  -2.1270943758166280e-05 2.1966486295878697e-05 -4.3997116224961117e-03  -6.3331435022606392e-05 6.2422094509590481e-05 -4.2728846555609452e-03  9.4612644004523952e-06 2.3369720344691722e-06 -4.6814901744788966e-03  1.8581019268450259e-05 9.8741571737661767e-06 -4.6516137906733529e-03  1.9013150479932147e-05 4.1270496298127111e-06 -4.3456865166191412e-03  4.2752456698867957e-08 -8.3197666333408555e-07 -4.6971363066737031e-03  1.8004182308242161e-05 -5.3880113204286939e-06 -4.4989013713547452e-03  4.9700968431462069e-06 -8.0241029507290504e-06 -4.6310652028433074e-03  2.1307597778085561e-06 -5.1264688852048969e-06 -4.6867567422879154e-03  5.4399234575632617e-06 2.2389502708523840e-06 -4.4951124783388884e-03  -9.9076535657454653e-06 3.4514010421973124e-07 -4.3254648336091810e-03  2.6938704725959044e-06 -1.3642977444020638e-05 -2.7119183295579228e-03  -2.7783917788322806e-06 -1.0144877784647558e-05 -4.1644413779948373e-03  -1.2939903375259012e-05 -1.0369589833763669e-05 -4.5153031704516745e-03  1.0738057134445141e-06 1.6132429830617717e-05 -3.8273666863854498e-03  -2.2995945701389790e-06 1.6932381158632190e-05 -3.4889265564117516e-03  -1.0610154743702808e-05 -5.0374715586769826e-06 -4.1045886165791169e-03  -1.1628619467817565e-05 -9.5505283235125581e-06 -4.1421649771687646e-03  -2.2170430439625827e-08 1.2044577987294505e-05 -3.4558678193616975e-03  5.4704425974524809e-05 1.7513665223709803e-05 -3.0529861272457800e-03  -5.9501963205122360e-06 5.7642997252611197e-06 -2.7075448272074732e-03  1.7873524736139342e-06 -8.3006557701347327e-06 -3.1844095347868129e-03  4.4633605019570079e-05 -1.9098717114832366e-05 -4.3267870224963619e-03  -1.5220909906945660e-04 -2.6765821562423315e-05 -4.1712601412156863e-03  -8.6071398345903446e-05 -6.3326118201431238e-05 -3.8711382058505437e-03  -1.0589907308918122e-06 -7.9992709670131595e-06 -2.4906518863192470e-07  -1.1432303393746261e-06 -6.3651329537056604e-06 -1.2478166617632094e-06  1.3692848925014907e-06 7.5099167806292881e-06 1.3102079269957202e-06  -2.3400124226900755e-05 -8.1310690969405603e-06 -3.1937477804462149e-03  2.8316129532082097e-05 -3.6233001518740242e-05 -4.3039494706952272e-03  -8.6236790140342104e-06 -1.6941025413341702e-04 -3.7119942046784505e-03  -2.5116334264561991e-05 -9.3826631027377913e-05 -3.4899904559764321e-03  -3.5392691966647734e-05 -1.6022555106930298e-05 -3.0775758968941049e-03  3.0469090168789298e-05 2.4151191340786246e-05 -4.5415307296561508e-03  5.3877448526426509e-05 6.1162221948007385e-05 -4.2539295367953782e-03  1.6879291883322862e-04 2.8895859578377135e-06 -3.1023080214839108e-03  2.8593367592792658e-06 1.0544275882375765e-05 -3.4048866673985221e-03  1.8933892763421069e-06 4.4266893514698182e-06 -4.8274089252585896e-06  -1.1614147757233265e-06 4.3206669622424312e-06 -4.2277606079184670e-06  6.5391390523129401e-06 5.3155889495692402e-05 -3.6220537128301257e-03  -5.7595753894445155e-06 8.6627856761779129e-06 -6.14620520