<?xml version="1.0"?>
<VTKFile type="UnstructuredGrid"  version="0.1"  >
<UnstructuredGrid>
<Piece  NumberOfPoints="857" NumberOfCells="3763">
<Points>
<DataArray  type="Float64"  NumberOfComponents="3"  format="ascii">-0.0182597916573 0.126128911972 -0.119588643312  -0.0077641364187 0.0512270443141 -0.07050477713349999  -0.0237180162221 0.16240182519 -0.053058128804  -0.107877351344 0.105669431388 -0.0502408407629  -0.0444478429854 0.116080775857 -0.00235075876117  0.0393674038351 0.112876079977 -0.0491501875222  0.0248903874308 0.0489483103156 0.000152088920004  0.0314915925264 0.114928804338 0.0218031276017  -0.0657326281071 0.0685198307037 0.0497140102088  -0.0355357266963 0.164656624198 0.0508319064975  -0.010538729839 -0.0422629192472 -0.208358153701  -0.0239527057856 0.0135364839807 -0.242119863629  -0.0194642152637 -0.0775559768081 -0.263431429863  -0.08492307364939999 -0.0108216870576 -0.280446648598  -0.08293507993220001 -0.0361198186874 -0.159778758883  -0.0240796487778 -0.0824203491211 -0.148982465267  0.0430508553982 -0.121076337993 -0.234084427357  0.0307756774127 0.0324950888753 -0.198437720537  0.00352357281372 -0.00433266581967 -0.144715368748  -0.0456651262939 0.08372022956609999 0.342343091965  -0.116630032659 0.0117083769292 0.386158525944  -0.08223126828669999 0.0577075146139 0.289406776428  -0.0511222109199 0.00205342215486 0.300772219896  -0.0125984866172 0.0267426930368 0.351842552423  0.0303636882454 0.0561947338283 0.391145974398  -0.0524924062192 0.0543583929539 0.40361738205  -0.07944945245979999 0.130002260208 0.441037595272  -0.000730989675503 0.119443200529 0.385622620583  -0.078488714993 0.137875169516 0.332541137934  0.0142801422626 0.110509291291 0.27100610733  0.0224165506661 0.08303219079970001 0.331783413887  -0.0170432701707 0.161798536777 0.30022162199  0.000811119796708 -0.0515509881079 -0.08419398218390001  0.0888616070151 -0.015075173229 -0.0776951387525  -0.0989535748959 -0.0518730916083 -0.08125374466180001  -0.0433920919895 -0.09785594791170001 0.0106235472485  -0.0488061010838 0.0295096840709 -0.0131453983486  -0.25 0.25 0.5  -0.166666666667 0.25 0.5  -0.25 0.195066730511 0.445658150344  -0.19506166517 0.25 0.445542865294  -0.0213422998786 -0.126349791884 -0.045622177422  -0.117952652276 0.0158270020038 -0.16616243124  -0.0531469397247 0.0490713231266 -0.13630309701  0.0358348339796 -0.131537660956 -0.134171053767  0.0583617314696 -0.115307979286 -0.0462360456586  0.010585160926 -0.0606908276677 0.314250290394  0.078067921102 -0.133790805936 0.331458956003  0.0206208750606 -0.104583717883 0.36723652482  0.0300164371729 -0.13569638133 0.270959883928  0.0797956883907 -0.07311873137949999 0.388136893511  0.0291880238801 -0.0850581228733 0.220644980669  0.0788302049041 -0.07555303722620001 0.284453928471  -0.0465739220381 -0.108428947628 0.305151432753  -0.056692365557 -0.0812899768353 0.234353885055  0.10282895714 0.0630551427603 -0.0452189296484  0.178613707423 0.153893724084 -0.0703043565154  0.0750898644328 0.130835875869 -0.116260357201  0.0179002508521 -0.0400723591447 0.396018892527  0.07961820065980001 -0.020668130368 0.232235535979  -0.00726175494492 -0.022667773068 0.242156982422  0.0524490773678 0.0171752162278 0.310696065426  0.0103002395481 0.0813155695796 0.107229083776  0.00225681974553 -0.008687185123560001 0.0457225777209  0.177950121638 0.25 0.0405701099774  0.151375159621 0.202163234353 -0.00268407491967  0.13042794168 0.172564610839 0.0599601529539  0.184557154775 0.16295710206 -0.00737970136106  0.0827306732535 0.011830884032 0.0299163535237  0.106673434377 0.0676268041134 0.0663062110543  0.25 0.25 0  0.25 0.177947182503 0.0435581305687  0.0251978598535 -0.0201241951436 -0.0233656335622  -0.25 -0.25 0.25  -0.175495340629 -0.25 0.295351832328  -0.25 -0.175776260788 0.294629825204  -0.164853364229 -0.189889326692 0.246240898967  0.111295968676 0.25 -0.00354384794953  0.0417815256417 0.25 0.0264120515999  0.0577150444892 0.25 -0.0418173710713  0.035034801811 0.196921139956 -0.0497792549431  -0.115254960954 0.0352221727371 -0.0357825122774  0.0360979661345 0.0743419006467 -0.130612716079  0.08110298216340001 0.0143552683294 -0.135737240314  0.0281950440258 0.110801942647 -0.38559025526  -0.000352636008756 0.154027625918 -0.45018479228  0.0220217909664 0.07910815626379999 -0.445265561342  -0.041934799403 0.09297795593740001 -0.440330862999  -0.115356497467 0.128115877509 0.0303980205208  -0.08144567906859999 0.192924261093 -0.0396481454372  -0.0503155887127 -0.140062868595 0.370642662048  0.0181560348719 -0.191118896008 0.319997102022  -0.09442232549189999 -0.0766885429621 0.347179293633  -0.10306725651 -0.0245223585516 0.261891931295  -0.0371639840305 -0.192689821124 0.258922994137  -0.08778057992460001 -0.193450272083 0.293951839209  -0.116932563484 -0.137108251452 0.278956532478  -0.0434515699744 -0.19969072938 0.340430229902  -0.016621209681 -0.143479332328 0.208528921008  -0.0799133181572 -0.177766740322 0.206858798862  -0.0340202823281 -0.07231882214550001 0.405357718468  -0.153045728803 -0.0703692808747 0.28540495038  -0.0647673308849 -0.069349065423 -0.297796696424  -0.0468406006694 -0.118580199778 -0.331259429455  -0.0636249184608 -0.122360698879 -0.235275790095  -0.137311711907 -0.115820750594 -0.279358655214  -0.25 -0.25 0.333333333333  -0.00222280388698 -0.0275516584516 -0.327156513929  0.0233143884689 -0.124395690858 -0.330935031176  -0.00544846989214 -0.0444226972759 -0.392852008343  -0.07202984392639999 -0.0450558848679 -0.379192590714  -0.128861442208 -0.0482712239027 -0.325591087341  -0.0319190612757 0.25 0.27473160228  0.0259018652141 0.196524605155 0.343851953745  -0.0424101948738 0.196461260319 0.324036180973  -0.08801463991400001 0.193724930286 0.280150324106  -0.051391992718 0.129726842046 0.244459152222  0.0793330296874 0.131078347564 0.273738384247  0.0304427426308 0.197590425611 0.258007407188  0.139736711979 -0.103549621999 0.308288753033  0.117407329381 -0.00031748006586 0.284001767635  0.17845864594 0.0137020656839 0.2717012465  0.133446916938 -0.07468281686309999 0.252671837807  0.193237304688 0.0103836003691 0.32706490159  0.108656100929 -0.016409387812 0.370573759079  0.195593327284 -0.0705924406648 0.374003827572  0.204297035933 -0.0882691517472 0.283604085445  0.15987212956 -0.0232784096152 0.211559042335  0.103109702468 -0.0715631917119 0.185957938433  0.25 -0.177950121638 0.0405701099774  0.25 -0.111295968676 -0.00354384794953  0.168315500021 -0.181550845504 -0.0129796266556  0.203061833978 -0.0839376300573 0.0201103240252  -0.123973377049 0.0421161539853 0.0831994190812  0.10652089864 0.041568480432 0.133020982146  -0.00508088478819 0.00464248098433 0.118765294552  0.0384838804603 0.0542355030775 0.219570666552  0.0556482039392 0.09942726045850001 0.165778696537  0.25 -0.25 0  0.25 -0.17904445884 -0.0421267671166  0.0085972994566 0.139411628246 0.206887423992  -0.0427397117019 0.0734880268574 0.199836358428  0.25 -0.25 0.166666666667  0.177338154858 -0.25 0.209433902167  0.178222204231 -0.25 0.126578397361  0.180748909712 -0.154124230146 0.180074676871  0.118582360446 0.0498475395143 0.233844980597  0.113276541233 0.115120351315 0.208414897323  0.068451166153 0.123325429857 0.09300038218499999  0.08695217221980001 0.18308262527 0.11987875402  0.1366494596 0.0978636816144 0.125807240605  0.0170362386853 0.165571182966 0.116205818951  -0.075325883925 -0.13042730093 -0.120773427188  -0.191016584635 -0.1764793396 -0.0778442546725  -0.102759346366 -0.20253264904 -0.07015967369080001  -0.126150563359 -0.115044787526 -0.0573479756713  -0.138729035854 -0.104583211243 -0.134180948138  -0.147993162274 -0.138949289918 -0.203295826912  -0.180331096053 -0.192031860352 -0.160557568073  -0.194399222732 -0.0846866071224 -0.148938387632  -0.11259970814 -0.078034222126 -0.193649172783  0.0326924659312 -0.122268341482 0.0296003930271  0.0215157996863 -0.180560961366 -0.0757267251611  0.0956164896488 -0.0493310950696 -0.0164182558656  0.112129375339 -0.112067811191 -0.105549775064  0.127802968025 -0.106147237122 -0.0110959038138  -0.0854129120708 -0.015297700651 0.056893799454  -0.0204317308962 -0.0795602425933 0.117458000779  -0.178222204231 0.25 0.126578397361  -0.177947182503 0.25 0.0435581305687  -0.107976816083 0.25 0.0905854563709  -0.157577678561 0.178241759539 0.0969507619739  0.25 -0.25 0.333333333333  0.25 -0.25 0.25  0.175776260788 -0.25 0.294629825204  0.25 -0.175495340629 0.295351832328  0.0932372882962 -0.0430554822087 0.0724518448114  -0.044769000262 -0.00661279587075 0.403999477625  -0.194478780031 -0.0247275307775 0.332954645157  -0.173761367798 -0.0806607827544 0.396263659  -0.137637495995 0.00523930834606 0.315887242556  0.0864742994308 -0.139340251684 0.176064118743  0.105438224971 -0.136641919613 0.253711819649  0.0308670303835 -0.25 -0.136809572586  0.0367561832589 -0.25 -0.219583441074  0.0925811678171 -0.20055809617 -0.19996842742  0.0127155454829 -0.193433105946 -0.225977659225  0.0415658205748 -0.200880005956 0.196522325277  0.0373581312597 -0.119548290968 0.120048768818  -0.0954102815882 -0.25 0.346414074494  -0.101368582479 -0.25 0.251933327382  -0.0374909392175 -0.25 0.286229296012  0.0852289572358 0.109103307128 -0.27055695653  0.07707493752239999 0.127253636718 -0.199824258685  0.128097131848 0.07648140937090001 -0.209757223725  0.154867321253 0.13628205657 -0.212952241302  0.08678253740069999 0.189277544618 -0.274375885725  0.127699971199 0.0803090333939 -0.326344817877  0.0577741526067 0.0601542405784 -0.31936660409  0.0525139421225 0.129102528095 -0.326874881983  0.0251371748745 0.175572559237 -0.261228203773  0.0199144631624 0.0927290171385 -0.265960127115  -0.148952946067 -0.121583275497 -0.374568909407  -0.25 0.177950121638 0.0405701099774  -0.25 0.111295968676 -0.00354384794953  -0.175531774759 0.135734900832 0.0562076568604  -0.178730383515 0.191659659147 -0.00562386959791  -0.0244714934379 -0.108516678214 -0.387223660946  -0.09279609471560001 -0.170035287738 -0.445968538523  -0.0281062982976 -0.0
[...]
<PointData  Vectors="f_78"> 
<DataArray  type="Float64"  Name="f_78"  NumberOfComponents="3" format="ascii">-1.5893736526395854e-05 -1.6131392831151504e-05 -4.4338884422283802e-03  7.5372130408991995e-06 2.8850232762474912e-06 -3.7255389389328659e-03  3.0110909487700983e-05 -1.0306082573335960e-05 -3.7082504944954257e-03  5.9472331433061852e-05 -2.8427878568450000e-05 -3.4699588549583615e-03  3.7054396847769667e-05 -3.6581208389956591e-05 -4.2618427598749547e-03  -2.4328494357669761e-05 3.6603901292896193e-05 -4.1881669562488337e-03  1.2563746360396824e-05 1.7799034278884222e-05 -4.2261095665384754e-03  4.2161031408427256e-05 1.3947235542317510e-05 -3.8180891804813839e-03  7.9548629980749883e-06 -1.5042452005893322e-05 -3.7397448783967275e-03  -6.6103709263438793e-05 3.9971491376395825e-05 -3.5031499273817162e-03  4.4596700812829951e-07 3.2738916014900343e-05 -3.7176187799282927e-03  -4.8415738264476900e-06 1.9071907082919889e-05 -3.9708338924293951e-03  -1.0278493935650987e-05 3.0239660458235631e-05 -4.0238466216343518e-03  -1.6094816913432738e-05 1.2016153327607910e-05 -4.3611418496998181e-03  6.7006106963534818e-06 1.0294426071205471e-05 -2.9031851141294194e-03  -3.8630463858343987e-06 3.4672001144852465e-05 -3.2615377715442297e-03  2.9927219902128858e-05 1.3186175689867357e-05 -3.0300354097618559e-03  7.9544083656211040e-06 1.5039150110292136e-05 -3.5713649453343417e-03  9.3620169374641006e-06 -2.1209214001381648e-05 -3.5424023333479847e-03  1.0085543842993513e-04 -2.0268094073546146e-04 -4.4526625120674930e-03  -1.5370985194059682e-04 -5.5238432876919858e-05 -3.8684529974910096e-03  -1.0664924759862438e-04 -5.0140982422833322e-05 -3.8696238360797879e-03  -1.7800930085677097e-04 -6.7367802622063844e-05 -3.9891134497877885e-03  -3.0350594595409946e-05 1.0868808939800800e-04 -4.5818484590748904e-03  3.4532049690820415e-05 4.4326826912154678e-05 -4.0828633406754921e-03  1.4154120710052539e-04 -6.3654065266876292e-05 -4.1957625217025740e-03  2.1379793439400875e-04 2.3539460304954403e-05 -4.0123601885569170e-03  -3.5269942563362637e-05 5.3070044520144324e-05 -3.6098219202352791e-03  -7.1611148524254706e-06 1.7478758310911850e-04 -3.8728911240720897e-03  -5.4422410566542910e-05 1.5426758337828663e-04 -4.7439761807336420e-03  6.0275123966215258e-05 3.1985291779658004e-05 -3.9993191632168240e-03  -2.3262770028080004e-04 1.2329183519817970e-04 -3.8260903792079752e-03  6.3330549832105244e-06 8.2689376092084617e-06 -3.9872496848973142e-03  -1.0373878236328832e-05 3.2065168455604411e-05 -4.1130489307643443e-03  2.4823699523674713e-06 3.7453505508637561e-06 -4.2371034995415339e-03  1.6760641457588203e-05 3.9247785644223017e-05 -3.9951641232597807e-03  -1.5715668410345200e-06 2.9254183322768700e-05 -4.0734414638150468e-03  9.1531035263994692e-06 -4.6403562375492831e-06 1.2650426303580306e-05  6.3940792165972161e-06 -7.9868198747211751e-06 1.0643388290524679e-05  4.5810636507162283e-06 5.3257973489832625e-07 1.0631872131756880e-05  2.8308309045776734e-06 -3.0773037140032004e-06 4.8638323860680323e-06  -2.5753226194751727e-05 6.4586438460244465e-05 -4.0608041102081346e-03  -2.5967315389183862e-05 1.8877487677851162e-05 -4.1926503132251004e-03  2.9782164355358561e-06 2.3732937614224507e-05 -4.4269916664348204e-03  2.5040478267017150e-05 -7.2704486171664857e-05 -3.7932292869767158e-03  -3.1770150539448206e-05 -2.6750710748558617e-05 -3.9900989807056964e-03  4.5277853106666602e-05 7.1021685515609254e-05 -3.9457858587759673e-03  -6.9740156777106223e-05 4.8809283558392966e-05 -4.6980968440001837e-03  -9.7281325484537874e-05 -1.2299171511218228e-04 -4.3221819561830186e-03  4.4527428071712283e-05 1.5148456365172603e-04 -3.5022914927982560e-03  1.0026531877665795e-04 -1.9136931374744105e-04 -4.1521585402611435e-03  1.3553467039686741e-05 1.2907795905826050e-05 -3.7073316506283181e-03  1.8654106979285986e-04 -2.5533914333412637e-05 -3.7044693663092834e-03  -4.9470247611406889e-05 -1.5767713018194072e-04 -3.6657947916441964e-03  9.6942749099314576e-06 3.4523753672388734e-05 -3.8313793091978117e-03  -3.1135748391503086e-05 -6.8111804111721098e-06 -4.0158693004715522e-03  -1.9084011567241607e-04 -2.0547793592115760e-05 -2.6852516232996454e-03  3.0590324115558133e-05 1.6613226032453474e-05 -4.1337483006779648e-03  -1.7675064748080533e-05 -1.8243586612147686e-05 -3.9778839766305618e-03  -6.3508589296325973e-05 -3.6674635264777063e-05 -4.5856009652360365e-03  -1.9380599695872894e-05 -6.3771634883738696e-06 -3.7673607562236843e-03  9.5130846424322781e-05 3.8174792826311795e-05 -3.8536381684922435e-03  1.0098652685138382e-05 1.5020368474619972e-05 -3.9928925919270946e-03  3.9695704801697324e-06 4.1808572643946702e-07 -4.1268700618915955e-03  -1.0215732123081272e-06 -9.5410090402097554e-06 1.9555400476709492e-07  -1.7728002158224016e-04 4.2572507754309272e-05 -5.5082370629242388e-03  4.5919888866142018e-05 -2.1642285841258789e-04 -3.8009670205921917e-03  -1.9119379587250761e-04 4.7612142776137542e-05 -2.5451662425760167e-03  -6.9070640801050436e-06 1.3538114325014477e-05 -3.9146098929850682e-03  -7.1675128868485787e-06 -2.6875998586651048e-05 -3.6981544480986805e-03  3.9018668747432778e-08 1.3457903135250317e-06 -2.1853102352501077e-06  -7.7798336287645032e-06 7.4170145458121157e-07 7.5996605928619331e-08  2.8925248961869178e-05 1.7847361169932761e-05 -4.3012378416332677e-03  1.4216108833544751e-06 3.0359648220767157e-06 -2.0068431653794616e-07  1.8366866517538268e-06 5.2802984199084678e-06 2.9694416884670073e-06  -2.8199188421256551e-06 -2.2402989788450291e-06 5.1359671043756038e-06  2.0098512754211052e-05 -3.0380502392096897e-04 -2.4108935142389226e-03  -3.3305650652520127e-07 1.9894703961537466e-06 1.0232649582065635e-06  -1.1142257421357496e-06 -4.0150127986888137e-06 8.9764591867679543e-08  3.9267461540326502e-07 1.0475553783651877e-05 8.2630537337830402e-07  -3.6999562241103856e-05 2.5986642940779977e-04 -3.8644114231330350e-03  -6.3333572257796269e-05 -5.2349546464693161e-05 -3.6622128592440030e-03  1.7749912177928023e-05 -1.3490628128984570e-05 -4.2800384840727844e-03  2.6398037420118765e-05 -2.0972465845949515e-05 -3.7471139547697800e-03  6.9434673589974707e-07 -4.7599697276269780e-05 -3.3179865896431314e-03  -1.1951008732120201e-04 -1.4256312333306964e-05 -3.0010124376453951e-03  -6.6438905307070993e-07 -2.6857067690243907e-05 -3.7986232309347970e-03  4.6363009969834044e-05 -6.5302808716402363e-05 -4.1120560066141860e-03  -1.6555532608792300e-04 -3.7737644297407318e-05 -4.3537269066861745e-03  -2.7675062972890274e-05 -2.2758776434633206e-04 -3.0136339021479947e-03  4.9370931098346993e-05 -1.2437849171989337e-04 -3.6931118075102251e-03  -1.0451482765870591e-05 1.6613316920328607e-04 -3.1071839002565498e-03  -1.5283519587912296e-04 -3.5982657265487650e-05 -3.7991446318653989e-03  1.2563614802321149e-04 -1.5769080499453388e-04 -3.7040812209602676e-03  -1.4600581177544710e-04 -1.3608461342471148e-05 -3.3044363260576696e-03  -4.2480506214772323e-05 1.4197764071981632e-05 -2.0971099016983243e-03  1.6424551966056147e-04 -7.9277813585406449e-05 -4.6268438698705890e-03  2.0052729756545574e-04 -5.6581515123065500e-05 -3.9670085825746146e-03  -2.9623585753829016e-06 -2.7533357922238772e-05 -3.9891031056329173e-03  -6.5043704095457336e-06 2.1745415944032301e-04 -3.8164056971481172e-03  -1.0049279770806085e-04 2.2856966806128213e-04 -4.2609132875175747e-03  2.1847236056838298e-05 -1.6485382096438035e-05 -2.5707337234094807e-03  9.3461218174392918e-07 4.8461794409630310e-06 -2.9243248462097800e-03  5.2595567402867469e-05 2.1421320493238983e-05 -4.5368178281995630e-03  1.0875276212076477e-05 1.2294719020701222e-05 -3.4530101681657334e-03  -4.2296330537381499e-05 4.2325002420641940e-05 -3.5465835597633592e-03  -2.7006336957040593e-06 -4.5144277902272087e-06 6.4460645125682001e-07  2.0499054015850686e-05 2.1866446517705528e-05 -3.8654385807262584e-03  1.6583337036257942e-05 3.0198094165734822e-05 -4.6683279594897757e-03  2.6528796819351356e-05 4.0576780877947806e-05 -4.1884321525853547e-03  1.2102109096719949e-07 6.7104251592873009e-07 -4.2577576239589384e-03  5.2733175091278585e-05 4.0852020358462116e-05 -2.7326591742030453e-03  1.0879234977334149e-06 -2.8875338196386203e-06 7.7224540745957939e-07  5.6136755801933794e-05 2.4022702613581243e-04 -3.8179011508721284e-03  -2.7835008261080092e-04 2.2629004847762684e-04 -4.5547290904601381e-03  3.7791199171386509e-04 -3.1111187839952411e-04 -3.0862172561640770e-03  -1.8489440624411336e-04 4.7404404943058024e-05 -4.5110055193670669e-03  7.8249481526157451e-05 1.0747463233162792e-04 -3.5227320528081344e-03  7.9657543636758457e-06 9.2155142894173884e-05 -4.1559149128938058e-03  -9.0428776692210973e-06 -3.8835753117170222e-06 -3.9850254091632117e-03  -2.6425565157000095e-05 -2.3778287430851691e-05 -3.6585569074766818e-03  2.0811855940297506e-05 -4.1293575863122035e-06 -2.5085040989251254e-03  2.8589821344445707e-05 7.8651113119093563e-05 -3.6669825884692452e-03  -6.0330139720585348e-05 -7.0529700613478110e-05 -3.0768089240910301e-03  5.9543834255786498e-05 7.9171587755678049e-05 -3.8999815934745228e-03  4.3326084665331260e-04 -1.6985578019678031e-05 -3.5394873590038189e-03  2.5295771835602858e-04 -1.3663936731340461e-05 -3.4136809024637497e-03  -8.1964212905884048e-05 -1.5197231070248509e-05 -3.6467458181967316e-03  6.1881450315160147e-05 -8.8949874571699462e-06 -2.5523920577036298e-03  -3.4693353833046669e-07 -3.6525945049997335e-06 -1.5930238749652294e-06  3.2346972333686899e-06 9.7009822361587284e-07 -1.3418821591617854e-06  -3.2365431520154834e-04 3.3604727880238598e-04 -3.9121134510437857e-03  1.1179652218317650e-04 -2.1556106104525530e-04 -2.5104431943207234e-03  4.1282120197306923e-05 1.9359431897759353e-05 -4.2784449846101011e-03  3.9212988387668006e-06 -2.2681390000617584e-05 -3.6105267646470885e-03  1.7188874942411543e-05 -2.5076132376007234e-06 -3.9264727421250804e-03  -3.6541681125226799e-05 4.6167093651779610e-05 -4.3824718427808527e-03  -1.5269402416971706e-05 -4.3502570510129466e-05 -3.7809065135807098e-03  6.0154881804402557e-06 -9.9018286837458411e-06 5.9064160402234156e-06  -1.4466657496997872e-05 1.0337358557072351e-06 -1.8055067339420454e-06  -7.3188139683816247e-06 -5.6369553379883097e-05 -4.1652345108319491e-03  7.8311730314520220e-05 4.3965826317232632e-05 -3.6577339959076235e-03  1.2270209726133386e-05 -9.7544736014877425e-06 1.5294651215402642e-06  4.2523655145564305e-06 8.6460711677092283e-07 3.1414228314941381e-07  -5.0429169514621232e-07 8.7093420115660313e-06 2.1701917514384821e-06  -1.4503453147772651e-04 1.9100894208104246e-04 -2.3044895381272063e-03  4.2962862863932763e-05 1.1303408317272269e-04 -4.1038329226283461e-03  4.1418840652131527e-05 1.2312246071816598e-05 -3.0886094138535911e-03  -8.3377754127863358e-05 7.5634475731035669e-07 -4.1254724479118637e-03  -5.8234505380627096e-05 -6.5872748232611485e-05 -3.8820019164777283e-03  2.7187725330766639e-05 -2.2693421269756351e-05 -3.1402304393281758e-03  2.0575153471870688e-05 -3.3063233848106134e-05 -2.5599861797972003e-03  -1.5022724020981457e-05 3.4564424408654470e-05 -3.9084225635647799e-03  1.1733238006228284e-04 6.6771555386771178e-06 -2.2989648093581835e-03  1.6824512078588700e-05 -3.0146648103088645e-05 -4.3317486493757865e-03  -1.5737809450497873e-05 3.3461007275184277e-05 -4.1613806827960299e-03  2.1828143408560270e-05 -2.6945999142815206e-05 -3.1075939689737841e-03  6.3912203110126829e-05 2.0388507274927083e-05 -4.5268334620309639e-03  8.9857658117863879e-05 9.5525097371873711e-05 -3.4733320879505166e-03  6.2063480687982249e-05 1.2836701909575726e-04 -2.6629765389397817e-03  4.1119929301980180e-05 5.9483834578702180e-05 -3.4847740544771155e-03  -2.8508391775626713e-05 -5.0158136525746556e-05 -3.8453172278588060e-03  -1.1799086769840331e-04 1.2206003603335219e-04 -3.0631805088821517e-03  -3.3829086378530357e-05 -1.7974981456421435e-05 -4.2149452351446176e-03  3.8756276747498886e-05 -1.8947434665736242e-05 -3.3506935355852108e-03  1.1741329000925779e-04 -1.9067629393519262e-05 -4.2831841779486582e-03  4.0725357843688377e-05 -2.1812371529771274e-05 -3.6289310123068688e-03  -3.2010915775476081e-06 4.5129629716767296e-06 -3.9869991870080564e-03  3.0015290505762529e-07 -7.1051708704982279e-06 -1.0936632083653640e-06  -5.4366257222818923e-08 -6.4010675563733290e-06 2.4509351874106695e-06  8.2202685077435875e-06 3.6959446105514640e-07 1.1995734079925980e-06  -4.1682840296253442e-05 -1.2957644232095198e-04 -2.2233462883988640e-03  1.1541772516566440e-05 -9.4677019522311446e-06 7.0717434024808133e-06  1.0976173594595900e-06 -1.5530058212381719e-06 1.6136883325670025e-06  1.5562714924893565e-06 5.1488983704396852e-06 2.9246687318925325e-06  -6.2427387324451504e-06 -1.8171308926973988e-07 1.9340326426274486e-06  -3.7464641943382612e-05 -1.1088033978224049e-05 -3.7286591618974868e-03  -2.0611275269742848e-05 8.7661984606563680e-05 -3.5749978987827087e-03  9.2358892748761160e-05 -5.8522670009118102e-06 -3.9294786469211695e-03  -2.0087795263727955e-04 1.5113411060384917e-04 -3.3088852225293410e-03  1.2392651078490228e-04 -2.6596179616039968e-05 -2.9364668059572133e-03  4.6869785462026334e-05 1.9939147223180158e-04 -3.5492812257325044e-03  -1.1590997131530395e-04 -2.3561650322898140e-04 -3.6108501779395616e-03  6.4920224860383408e-07 2.2624873503520144e-07 1.0191287182868527e-06  1.2701051770344513e-06 4.5136352927408074e-06 9.4759295729056482e-07  2.1526694250302416e-05 -5.5527538940723184e-05 -3.3649494769725542e-03  -1.1815162834116969e-04 1.9661900202298452e-04 -1.9600832520610340e-03  -4.8108694856176362e-05 -8.2459241006772391e-05 -4.7888179742043846e-03  5.6577317212874815e-06 3.3867125451519025e-05 -4.0386513474517530e-03  -6.8082132242730489e-07 -4.0354413676524536e-06 3.8929036653408042e-06  -1.9002197405709649e-06 -6.8767108872902934e-06 2.2111795712806582e-06  -3.7046182898835060e-06 8.3469269208111136e-06 9.4798202989866236e-07  8.6763954155941685e-05 -1.7897895842132912e-05 -2.7593093164383574e-03  -5.5283023117017062e-05 -7.3041383012204086e-05 -3.0327051458354766e-03  1.6131555672955401e-05 -3.2802155205255889e-05 -3.7478277259430991e-03  -4.7429976337476662e-06 2.0515528174074993e-06 -2.4070348712157837e-03  7.0285505565949655e-05 5.8248596315286584e-06 -2.1703880976215359e-03  -3.2834004650144288e-05 1.2126268024082755e-05 -4.9014058285592023e-03  1.9801318100406895e-05 1.0153485443933374e-05 -4.1581695420381233e-03  6.9852499893298029e-06 1.0181367887987641e-05 -3.4889327818712970e-03  -2.5642308941253706e-05 -8.8421443953713160e-05 -2.2160660300748342e-03  -5.9657978882208423e-06 1.4957399932756540e-06 -4.3457145399999906e-03  3.6066695663634445e-06 6.6663847337365492e-06 -4.0873203750305615e-03  5.5615205048975617e-06 2.4103397121006568e-06 3.6337525288525133e-06  1.0890029466957744e-07 1.1452149275454277e-06 5.8620531844034304e-08  3.7540754123763161e-04 -1.7923837671126591e-04 -2.4711267718339237e-03  -1.0010023703593829e-04 4.8887412634686114e-06 -3.7874746649733857e-03  -3.1022177058260566e-05 7.4738367878066783e-05 -3.5858781958115755e-03  3.0536473503984286e-05 1.2435697936693005e-05 -4.0415942992826160e-03  9.9903807863707519e-06 4.6793125500105043e-05 -4.3212997036940551e-03  1.9144247169002331e-06 -2.7538017602428433e-06 -1.6789770328503606e-06  -1.9518166539353487e-06 2.7294748505665472e-06 2.8175658916694203e-06  1.1248122877017494e-05 -5.7305362049808232e-05 -3.6150124037309895e-03  6.3298713882384836e-05 6.2101097595274494e-05 -3.0620933372702682e-03  -3.7420802417264732e-05 3.1220532168105219e-05 -3.2454475418444914e-03  -9.1403159700849312e-05 3.8727441710239976e-05 -4.2877401766356774e-03  1.2378275552415836e-05 -7.8978824370865294e-06 -3.9263046767575747e-03  -8.1652287133078828e-07 4.7835418740788428e-06 -3.5289718544587757e-06  4.9714384352857374e-07 5.7532297303899806e-07 -3.5460681942703143e-06  7.3200318109088784e-07 -3.2403371746923326e-06 1.9364370637894217e-06  2.3159257676958844e-05 4.9474923684060467e-05 -4.0818506889001641e-03  1.7027448208153522e-05 1.6706314734654885e-05 -3.8672726667222006e-03  -1.3395036928253401e-06 3.2420925770874909e-05 -4.2485079975092934e-03  -1.4930940325984156e-05 3.5839594098045953e-05 -4.0436957916300713e-03  9.2819793820308220e-06 -4.8532234471958582e-05 -4.9420850752638678e-03  -6.4604438531588098e-05 -4.1195009654596263e-05 -3.7738230019593480e-03  8.1596844590033734e-06 -3.2469761476756843e-05 -3.6969996227722546e-03  -1.2456667808594508e-06 1.0101971361213185e-05 3.0656707242393247e-06  -1.0053569703961604e-06 -6.7504063680414436e-06 -1.7463388127303210e-06  -1.6824567464863435e-04 3.9068639611817137e-05 -2.9457035849842516e-03  8.6084035579919651e-05 4.7926988727899075e-05 -2.9383385533549356e-03  -1.1290260129197273e-06 3.6229257312603707e-05 -2.2371449431326336e-03  8.0401845596858110e-05 -5.8366473882676924e-05 -3.6313076054333817e-03  -3.1516716496224880e-05 -4.4790083424024277e-05 -3.8570069186829804e-03  -6.1165606043024601e-06 -9.4230871408368191e-05 -3.3845415890297295e-03  1.1832243941231710e-04 -4.5196251213069409e-05 -4.5476739509758887e-03  -1.0428482204459126e-04 1.4608082761114697e-04 -2.5669127719037191e-03  -1.4916247378944661e-04 1.1517596055657095e-04 -2.3533014898618680e-03  3.2217022886726179e-05 1.1371039573616212e-06 -3.8631501639594576e-03  5.3036837465959595e-05 4.1218126533330509e-05 -4.6956955666637200e-03  7.7898255741410950e-05 -9.8308155060280979e-06 -3.9725062392175605e-03  -4.9299483921822114e-06 2.0606710402740545e-05 -3.6552443888815313e-03  1.4524664014339338e-05 -3.9602911214730553e-05 -4.0895958542942860e-03  2.4084365016040937e-05 -5.8471431249187764e-05 -4.4066398307543988e-03  1.9342981640191997e-05 1.1032220554048980e-05 -4.2846524491424167e-03  -3.5113327362355216e-06 1.9017621116797552e-06 -3.7747863809217070e-03  -4.9493912524983719e-05 -2.2146257407431038e-06 -4.0641223693935026e-03  7.1945256130781247e-05 1.4235826344074510e-05 -2.8816959168173378e-03  7.6622022637391621e-05 2.4631702738842464e-05 -3.7625023562549279e-03  -2.3802626893216689e-05 -1.0159555465267903e-04 -4.3088172885559720e-03  -7.1483225975118249e-05 -1.3827470978250561e-04 -4.3314696996560815e-03  -1.2324178685116488e-04 -2.5097618945099353e-05 -5.1511806717270264e-03  -5.9618763973974663e-05 7.7701355724514644e-05 -2.5060055160507177e-03  6.9397284571237722e-05 -5.6647019375914279e-05 -4.2621694847322020e-03  -4.3197285155878023e-05 -1.1877654972422263e-04 -2.7536666981162706e-03  -9.9245893466106167e-06 4.3869080149529045e-05 -4.1755093144259662e-03  -1.8376242231834334e-05 1.6153048602138693e-04 -1.9441265777302946e-03  6.5054275516564090e-05 -2.3095606122162346e-04 -4.0504090318093473e-03  3.5874336028850574e-05 1.0126343701037138e-04 -2.9014085939671067e-03  -8.2582707733275566e-05 2.2438115589186841e-06 -3.7016421658124417e-03  -1.3785594768014038e-04 5.0603996465792817e-05 -3.6267144008538111e-03  2.1976921511113723e-06 -3.5065913745472890e-06 -9.9266615592068456e-07  -8.6201706880861338e-07 -9.3818686729969448e-06 -2.6166054681235944e-06  -7.3850532059299964e-07 1.3096886324638533e-05 1.2909443132464192e-06  2.1403905024389833e-04 -1.3368876566768664e-04 -3.8038761001015810e-03  -1.3133868113372662e-04 -3.9450528492312104e-05 -3.3609073779626584e-03  9.4582705259149878e-05 1.5697951894697535e-05 -4.3442496326799428e-03  -1.0938540778453500e-04 -2.2049611828415150e-04 -3.5830636611367374e-03  -3.5797432921497228e-04 -9.7107746644537257e-06 -4.3724232551458865e-03  3.1962665016172987e-06 -7.4442325571865653e-05 -4.1853216179507553e-03  1.0482620468186018e-04 1.0041299288793512e-04 -3.2379385293640948e-03  1.6454522092472151e-04 -1.3767459921566719e-04 -3.6692109335402022e-03  1.3271618456487801e-05 -5.5312729520753988e-05 -3.8094916360951062e-03  2.2317999927385860e-06 6.8336497749083891e-06 -4.5245034141873386e-06  -4.2710920811749666e-07 3.9082668232809286e-06 -4.2755238574277622e-06  5.7949355050913248e-05 1.5344577192815686e-04 -4.6641326195411507e-03  -9.8599564578637601e-07 4.6079758936390231e-06 3.0386857485015241e-07  -3.959