<?xml version="1.0"?>
<VTKFile type="UnstructuredGrid"  version="0.1"  >
<UnstructuredGrid>
<Piece  NumberOfPoints="857" NumberOfCells="3763">
<Points>
<DataArray  type="Float64"  NumberOfComponents="3"  format="ascii">-0.0182597916573 0.126128911972 -0.119588643312  -0.0077641364187 0.0512270443141 -0.07050477713349999  -0.0237180162221 0.16240182519 -0.053058128804  -0.107877351344 0.105669431388 -0.0502408407629  -0.0444478429854 0.116080775857 -0.00235075876117  0.0393674038351 0.112876079977 -0.0491501875222  0.0248903874308 0.0489483103156 0.000152088920004  0.0314915925264 0.114928804338 0.0218031276017  -0.0657326281071 0.0685198307037 0.0497140102088  -0.0355357266963 0.164656624198 0.0508319064975  -0.010538729839 -0.0422629192472 -0.208358153701  -0.0239527057856 0.0135364839807 -0.242119863629  -0.0194642152637 -0.0775559768081 -0.263431429863  -0.08492307364939999 -0.0108216870576 -0.280446648598  -0.08293507993220001 -0.0361198186874 -0.159778758883  -0.0240796487778 -0.0824203491211 -0.148982465267  0.0430508553982 -0.121076337993 -0.234084427357  0.0307756774127 0.0324950888753 -0.198437720537  0.00352357281372 -0.00433266581967 -0.144715368748  -0.0456651262939 0.08372022956609999 0.342343091965  -0.116630032659 0.0117083769292 0.386158525944  -0.08223126828669999 0.0577075146139 0.289406776428  -0.0511222109199 0.00205342215486 0.300772219896  -0.0125984866172 0.0267426930368 0.351842552423  0.0303636882454 0.0561947338283 0.391145974398  -0.0524924062192 0.0543583929539 0.40361738205  -0.07944945245979999 0.130002260208 0.441037595272  -0.000730989675503 0.119443200529 0.385622620583  -0.078488714993 0.137875169516 0.332541137934  0.0142801422626 0.110509291291 0.27100610733  0.0224165506661 0.08303219079970001 0.331783413887  -0.0170432701707 0.161798536777 0.30022162199  0.000811119796708 -0.0515509881079 -0.08419398218390001  0.0888616070151 -0.015075173229 -0.0776951387525  -0.0989535748959 -0.0518730916083 -0.08125374466180001  -0.0433920919895 -0.09785594791170001 0.0106235472485  -0.0488061010838 0.0295096840709 -0.0131453983486  -0.25 0.25 0.5  -0.166666666667 0.25 0.5  -0.25 0.195066730511 0.445658150344  -0.19506166517 0.25 0.445542865294  -0.0213422998786 -0.126349791884 -0.045622177422  -0.117952652276 0.0158270020038 -0.16616243124  -0.0531469397247 0.0490713231266 -0.13630309701  0.0358348339796 -0.131537660956 -0.134171053767  0.0583617314696 -0.115307979286 -0.0462360456586  0.010585160926 -0.0606908276677 0.314250290394  0.078067921102 -0.133790805936 0.331458956003  0.0206208750606 -0.104583717883 0.36723652482  0.0300164371729 -0.13569638133 0.270959883928  0.0797956883907 -0.07311873137949999 0.388136893511  0.0291880238801 -0.0850581228733 0.220644980669  0.0788302049041 -0.07555303722620001 0.284453928471  -0.0465739220381 -0.108428947628 0.305151432753  -0.056692365557 -0.0812899768353 0.234353885055  0.10282895714 0.0630551427603 -0.0452189296484  0.178613707423 0.153893724084 -0.0703043565154  0.0750898644328 0.130835875869 -0.116260357201  0.0179002508521 -0.0400723591447 0.396018892527  0.07961820065980001 -0.020668130368 0.232235535979  -0.00726175494492 -0.022667773068 0.242156982422  0.0524490773678 0.0171752162278 0.310696065426  0.0103002395481 0.0813155695796 0.107229083776  0.00225681974553 -0.008687185123560001 0.0457225777209  0.177950121638 0.25 0.0405701099774  0.151375159621 0.202163234353 -0.00268407491967  0.13042794168 0.172564610839 0.0599601529539  0.184557154775 0.16295710206 -0.00737970136106  0.0827306732535 0.011830884032 0.0299163535237  0.106673434377 0.0676268041134 0.0663062110543  0.25 0.25 0  0.25 0.177947182503 0.0435581305687  0.0251978598535 -0.0201241951436 -0.0233656335622  -0.25 -0.25 0.25  -0.175495340629 -0.25 0.295351832328  -0.25 -0.175776260788 0.294629825204  -0.164853364229 -0.189889326692 0.246240898967  0.111295968676 0.25 -0.00354384794953  0.0417815256417 0.25 0.0264120515999  0.0577150444892 0.25 -0.0418173710713  0.035034801811 0.196921139956 -0.0497792549431  -0.115254960954 0.0352221727371 -0.0357825122774  0.0360979661345 0.0743419006467 -0.130612716079  0.08110298216340001 0.0143552683294 -0.135737240314  0.0281950440258 0.110801942647 -0.38559025526  -0.000352636008756 0.154027625918 -0.45018479228  0.0220217909664 0.07910815626379999 -0.445265561342  -0.041934799403 0.09297795593740001 -0.440330862999  -0.115356497467 0.128115877509 0.0303980205208  -0.08144567906859999 0.192924261093 -0.0396481454372  -0.0503155887127 -0.140062868595 0.370642662048  0.0181560348719 -0.191118896008 0.319997102022  -0.09442232549189999 -0.0766885429621 0.347179293633  -0.10306725651 -0.0245223585516 0.261891931295  -0.0371639840305 -0.192689821124 0.258922994137  -0.08778057992460001 -0.193450272083 0.293951839209  -0.116932563484 -0.137108251452 0.278956532478  -0.0434515699744 -0.19969072938 0.340430229902  -0.016621209681 -0.143479332328 0.208528921008  -0.0799133181572 -0.177766740322 0.206858798862  -0.0340202823281 -0.07231882214550001 0.405357718468  -0.153045728803 -0.0703692808747 0.28540495038  -0.0647673308849 -0.069349065423 -0.297796696424  -0.0468406006694 -0.118580199778 -0.331259429455  -0.0636249184608 -0.122360698879 -0.235275790095  -0.137311711907 -0.115820750594 -0.279358655214  -0.25 -0.25 0.333333333333  -0.00222280388698 -0.0275516584516 -0.327156513929  0.0233143884689 -0.124395690858 -0.330935031176  -0.00544846989214 -0.0444226972759 -0.392852008343  -0.07202984392639999 -0.0450558848679 -0.379192590714  -0.128861442208 -0.0482712239027 -0.325591087341  -0.0319190612757 0.25 0.27473160228  0.0259018652141 0.196524605155 0.343851953745  -0.0424101948738 0.196461260319 0.324036180973  -0.08801463991400001 0.193724930286 0.280150324106  -0.051391992718 0.129726842046 0.244459152222  0.0793330296874 0.131078347564 0.273738384247  0.0304427426308 0.197590425611 0.258007407188  0.139736711979 -0.103549621999 0.308288753033  0.117407329381 -0.00031748006586 0.284001767635  0.17845864594 0.0137020656839 0.2717012465  0.133446916938 -0.07468281686309999 0.252671837807  0.193237304688 0.0103836003691 0.32706490159  0.108656100929 -0.016409387812 0.370573759079  0.195593327284 -0.0705924406648 0.374003827572  0.204297035933 -0.0882691517472 0.283604085445  0.15987212956 -0.0232784096152 0.211559042335  0.103109702468 -0.0715631917119 0.185957938433  0.25 -0.177950121638 0.0405701099774  0.25 -0.111295968676 -0.00354384794953  0.168315500021 -0.181550845504 -0.0129796266556  0.203061833978 -0.0839376300573 0.0201103240252  -0.123973377049 0.0421161539853 0.0831994190812  0.10652089864 0.041568480432 0.133020982146  -0.00508088478819 0.00464248098433 0.118765294552  0.0384838804603 0.0542355030775 0.219570666552  0.0556482039392 0.09942726045850001 0.165778696537  0.25 -0.25 0  0.25 -0.17904445884 -0.0421267671166  0.0085972994566 0.139411628246 0.206887423992  -0.0427397117019 0.0734880268574 0.199836358428  0.25 -0.25 0.166666666667  0.177338154858 -0.25 0.209433902167  0.178222204231 -0.25 0.126578397361  0.180748909712 -0.154124230146 0.180074676871  0.118582360446 0.0498475395143 0.233844980597  0.113276541233 0.115120351315 0.208414897323  0.068451166153 0.123325429857 0.09300038218499999  0.08695217221980001 0.18308262527 0.11987875402  0.1366494596 0.0978636816144 0.125807240605  0.0170362386853 0.165571182966 0.116205818951  -0.075325883925 -0.13042730093 -0.120773427188  -0.191016584635 -0.1764793396 -0.0778442546725  -0.102759346366 -0.20253264904 -0.07015967369080001  -0.126150563359 -0.115044787526 -0.0573479756713  -0.138729035854 -0.104583211243 -0.134180948138  -0.147993162274 -0.138949289918 -0.203295826912  -0.180331096053 -0.192031860352 -0.160557568073  -0.194399222732 -0.0846866071224 -0.148938387632  -0.11259970814 -0.078034222126 -0.193649172783  0.0326924659312 -0.122268341482 0.0296003930271  0.0215157996863 -0.180560961366 -0.0757267251611  0.0956164896488 -0.0493310950696 -0.0164182558656  0.112129375339 -0.112067811191 -0.105549775064  0.127802968025 -0.106147237122 -0.0110959038138  -0.0854129120708 -0.015297700651 0.056893799454  -0.0204317308962 -0.0795602425933 0.117458000779  -0.178222204231 0.25 0.126578397361  -0.177947182503 0.25 0.0435581305687  -0.107976816083 0.25 0.0905854563709  -0.157577678561 0.178241759539 0.0969507619739  0.25 -0.25 0.333333333333  0.25 -0.25 0.25  0.175776260788 -0.25 0.294629825204  0.25 -0.175495340629 0.295351832328  0.0932372882962 -0.0430554822087 0.0724518448114  -0.044769000262 -0.00661279587075 0.403999477625  -0.194478780031 -0.0247275307775 0.332954645157  -0.173761367798 -0.0806607827544 0.396263659  -0.137637495995 0.00523930834606 0.315887242556  0.0864742994308 -0.139340251684 0.176064118743  0.105438224971 -0.136641919613 0.253711819649  0.0308670303835 -0.25 -0.136809572586  0.0367561832589 -0.25 -0.219583441074  0.0925811678171 -0.20055809617 -0.19996842742  0.0127155454829 -0.193433105946 -0.225977659225  0.0415658205748 -0.200880005956 0.196522325277  0.0373581312597 -0.119548290968 0.120048768818  -0.0954102815882 -0.25 0.346414074494  -0.101368582479 -0.25 0.251933327382  -0.0374909392175 -0.25 0.286229296012  0.0852289572358 0.109103307128 -0.27055695653  0.07707493752239999 0.127253636718 -0.199824258685  0.128097131848 0.07648140937090001 -0.209757223725  0.154867321253 0.13628205657 -0.212952241302  0.08678253740069999 0.189277544618 -0.274375885725  0.127699971199 0.0803090333939 -0.326344817877  0.0577741526067 0.0601542405784 -0.31936660409  0.0525139421225 0.129102528095 -0.326874881983  0.0251371748745 0.175572559237 -0.261228203773  0.0199144631624 0.0927290171385 -0.265960127115  -0.148952946067 -0.121583275497 -0.374568909407  -0.25 0.177950121638 0.0405701099774  -0.25 0.111295968676 -0.00354384794953  -0.175531774759 0.135734900832 0.0562076568604  -0.178730383515 0.191659659147 -0.00562386959791  -0.0244714934379 -0.108516678214 -0.387223660946  -0.09279609471560001 -0.170035287738 -0.445968538523  -0.0281062982976 -0.0
[...]
<PointData  Vectors="f_68"> 
<DataArray  type="Float64"  Name="f_68"  NumberOfComponents="3" format="ascii">3.5717085158493013e-05 7.8565500033150908e-07 -1.9503250414641897e-02  -1.1075584742432727e-05 1.8552551993224388e-05 -1.9326541297428144e-02  -2.0203623868679352e-05 -5.2317069644108264e-05 -1.8471252780991657e-02  -6.8030858127495343e-05 2.7502263231874126e-05 -1.7262721623877077e-02  -5.0886923192630253e-05 -6.7231501655984252e-06 -1.9492500397182120e-02  6.7338376335488259e-06 8.6127950409318232e-05 -1.7945068506069015e-02  -1.3770011034745075e-05 2.9150351229622000e-05 -1.9519666462097785e-02  2.4546317680238071e-05 2.9213669555365900e-05 -1.8155863151639102e-02  -2.7337255164179607e-05 -3.1281834480894976e-05 -1.9401642678194529e-02  -5.5283019709792045e-05 9.5724462713941090e-05 -1.6153175125866576e-02  -1.1162974046832494e-05 3.1659774405787451e-05 -1.9697429285922160e-02  -8.2286467380867584e-06 4.1475594112643219e-06 -1.9550237258669133e-02  9.6676936061074983e-06 3.2060680625877600e-05 -1.9302961831614725e-02  -5.1306885258688632e-06 3.7913213478454499e-05 -1.9428327047836196e-02  4.4922789068404097e-05 4.7672735428675593e-05 -1.8749427662693746e-02  1.3975858551075005e-05 8.4838480195541957e-06 -1.9034941293152377e-02  4.5288108767981517e-05 -9.9693826952287178e-06 -1.8051205153441535e-02  1.1232024309730690e-05 1.3805907988594382e-05 -1.9487526205963269e-02  1.5356836514100759e-05 -2.4849837231960173e-06 -1.9459943674936218e-02  5.1123913310095885e-05 -7.5547145920731892e-05 -1.9442141046625411e-02  8.8499576474374483e-05 -2.3011608193303205e-05 -1.8779160288358264e-02  2.1646202334790533e-05 1.6331625696088443e-05 -1.8934401428479811e-02  3.6096552624081785e-05 2.2248130017804294e-05 -1.9366724641482168e-02  1.1109356467294569e-05 5.2846010680009931e-05 -1.9648568414949479e-02  -1.0459805717750611e-04 -3.3499736277434121e-05 -1.8891591107600317e-02  1.3243170369302135e-04 -1.0946794480930901e-04 -1.8950018467492839e-02  8.8599666822387099e-05 -1.0882926536220425e-04 -1.8461379184362543e-02  -3.4111931729955626e-05 -2.8822887533684095e-05 -1.7107817770194635e-02  3.3639574167495064e-05 -1.3364677840707061e-04 -1.8691514064281645e-02  -1.7912359078205803e-05 -1.7568535646749959e-05 -1.9282350870446559e-02  -4.6883218473941159e-05 -5.5484399106671613e-05 -1.8769549462760920e-02  -1.2554157806361447e-05 -7.1159102827948658e-05 -1.8839986436147114e-02  -8.6253579451500754e-06 1.9348272882607629e-05 -1.9505802723974165e-02  -4.1441827705700208e-05 1.0157969840172656e-05 -1.8800311645861004e-02  -4.5402991069043378e-05 -9.6831380961347085e-06 -1.8879827939383993e-02  -2.1661969534725624e-05 2.0712949840119481e-05 -1.9098721069009131e-02  -1.1516639291978038e-05 3.7213896235737037e-05 -1.9271987575959805e-02  3.8350315981464332e-05 -7.1210772137308748e-06 6.0042593415001483e-05  9.9999193628225998e-06 6.4306481207731869e-06 1.1026821653918870e-04  -9.3894522189964254e-07 1.5860254351326182e-05 8.0076627292948715e-05  6.5966582240558863e-06 2.3898823226837955e-06 4.0875791187092164e-05  -5.4819981927146423e-05 6.5531159244255389e-05 -1.7933320100824785e-02  5.0389900250697253e-05 5.7374755210656174e-05 -1.9184114275779839e-02  8.0847037632994550e-06 3.0441730193761747e-05 -1.9690844492761962e-02  -3.3651357755451308e-05 -1.5004769488845680e-05 -1.8768800311910330e-02  -1.3188200148454688e-06 -2.3451162549517967e-05 -1.7985232375463241e-02  -4.3150386215878897e-05 1.1558485668376587e-04 -1.9389228513789519e-02  -4.0446618994642927e-04 3.6972398957873761e-04 -1.8248541827178853e-02  -7.3212246901095722e-05 3.4718937539789682e-04 -1.8805186717520843e-02  -1.2020130093326093e-04 9.5073003441124138e-05 -1.8041767644968051e-02  -2.0289535544753195e-04 3.3507246897972247e-04 -1.8685799889153455e-02  -4.5773598848833874e-05 4.0595262953080697e-05 -1.9350462543015909e-02  -1.3726088809301593e-04 1.7161901252024620e-04 -1.8821291447179624e-02  -4.3938895548033380e-05 8.3416206112963450e-05 -1.7535715725098280e-02  -5.6430204861675075e-06 7.1025222642381492e-05 -1.8993731589783770e-02  -5.2712044735983675e-05 4.3628039249498166e-05 -1.8468807819713648e-02  1.8044439342526346e-04 2.9102597992171928e-04 -1.3275188157418480e-02  -3.5853277653489905e-05 3.0604465373842971e-05 -1.7224399356547255e-02  -1.4969537445502641e-05 1.1767327698884382e-04 -1.9320887253421501e-02  -8.7132446457203528e-05 5.8723207717609064e-05 -1.9162787966733656e-02  -2.5081927561201457e-05 4.4556453603252770e-05 -1.9419387799151606e-02  -4.2530431182799122e-05 2.6575225978271047e-05 -1.9255989562742642e-02  4.8658221549750948e-06 2.1818791175301363e-05 -1.9054339155558996e-02  -2.6705475445442733e-05 2.0481417873414486e-05 -1.9706473561252564e-02  -1.6984170848549273e-06 1.3002296243452117e-07 -3.3437025429433634e-06  2.7413047465565786e-04 3.5334956372708028e-05 -1.2528923770835474e-02  -9.1241037971711390e-05 -2.4672892282848218e-04 -1.4619334979495044e-02  -8.4078350039117487e-05 8.4377864605980529e-05 -1.4082309675451427e-02  -3.2209181261935328e-05 6.0890675534783773e-05 -1.9273627208297422e-02  -7.9334530872044183e-05 1.4467997843854625e-05 -1.8774506828750110e-02  -9.5722305346033467e-07 -2.0281080157201418e-07 -3.0814347243912954e-06  6.5520908635424699e-07 6.7627941232770090e-07 -3.7413216786597833e-06  -1.3375489705107075e-05 1.7206819886736805e-05 -1.9768307981743088e-02  -3.3795177518402094e-06 1.7139945211005413e-07 -1.2724768105966838e-05  -2.9304714551422753e-06 4.8656814900060362e-06 -5.6979950659747254e-06  6.4364369998843938e-06 3.4953968982326067e-06 -2.1763178313204497e-06  2.4769947674462256e-05 -1.9916682919969561e-04 -1.0839187520362345e-02  -1.5094635267282815e-08 3.0124428044717143e-07 -2.1114908413125130e-06  -7.2332598550847531e-07 -5.0169703127756902e-07 -3.1625617662135277e-06  -6.1385529587832658e-07 3.0467861992175392e-07 -3.3818026890347769e-06  -7.5460320234944654e-05 5.7615117282454436e-05 -1.4621729193066285e-02  -9.8256470001185041e-05 -2.1301952832338094e-05 -1.8288455821164510e-02  8.7602845799511289e-06 8.8086683093416060e-06 -1.9717394560105315e-02  4.5090770017171530e-05 -5.0897947667015921e-06 -1.8935464821100659e-02  -2.4744427027329176e-05 -6.7992510996993778e-05 -1.8389272082217044e-02  4.1903522773355233e-05 -1.8209441484020699e-04 -1.4783217910459594e-02  2.9274230537735780e-05 -1.9770674490180744e-05 -1.9207686596037384e-02  3.5614921947060912e-05 -1.6724917296163458e-04 -1.8808529482048562e-02  -4.8064019244099525e-05 -1.2783299544463753e-04 -1.8125796669632759e-02  -1.5901114174655159e-04 -7.2168057324224258e-07 -1.3051186628582618e-02  7.9993441406854988e-05 1.9750178936446671e-04 -1.7185069192974394e-02  -2.2394725924283204e-04 1.8682682563409838e-04 -1.6020838379494480e-02  1.8480990816047808e-04 2.6693405145337637e-04 -1.7445202542217909e-02  2.2217946674601175e-05 -1.4924454492269109e-06 -1.9069516601635951e-02  -1.2058689447371741e-04 1.6758547046435835e-04 -1.5544457954763280e-02  -1.1390544936190166e-05 -4.4112328653529552e-04 -1.4652697319255498e-02  1.8364352937078108e-05 1.0434761111649299e-05 -1.7292986831835760e-02  1.5419801259781516e-04 2.9923549634894162e-04 -1.4542498479733384e-02  5.7116867986218345e-06 6.5171961138275959e-05 -1.8822981017171884e-02  3.1144281764575659e-05 2.2674479834605620e-04 -1.5667484331872948e-02  2.2144236025606466e-05 1.8067399517051680e-04 -1.8726410922094216e-02  7.1692104649261103e-05 1.2878892000711480e-04 -1.3937664121466523e-02  4.8964185223410395e-05 3.1366365875776423e-05 -1.9030870058545112e-02  3.5170671817040289e-05 2.8321733945654454e-05 -1.8630017227058055e-02  1.9420098533761845e-05 -2.2896221504441399e-05 -1.7609525965627849e-02  -5.8295043676331555e-06 4.3211591286636058e-05 -1.6637845677987276e-02  -1.0550485780378773e-05 -7.6321497594319478e-06 -1.3930024211099716e-05  3.0622748487635986e-05 2.1670084739184959e-05 -1.9353192439018060e-02  -2.7707104978491301e-06 5.2888847934137326e-05 -1.9429597256033288e-02  1.8381838614870356e-05 8.2107098384907946e-05 -1.9208916442865598e-02  3.5092273533339265e-05 7.0012913319470854e-05 -1.8749444837046089e-02  4.8280829977878300e-05 6.0713782365982952e-06 -1.6011874791448708e-02  1.0749165073714429e-06 8.0896463284227011e-07 9.6271093778838341e-07  -1.0230179100246104e-04 7.1010493340389875e-05 -1.5618627770351992e-02  -1.5526360551850057e-04 2.0539949126034245e-04 -1.2326928297555035e-02  4.8302568341177681e-04 -2.7410194648483475e-04 -1.4251533951603515e-02  6.2667842928370795e-05 -4.2948203062997037e-05 -1.9322794342437034e-02  -1.0101316207226289e-04 -7.1666842197420759e-05 -1.6895849615909030e-02  5.0595966403962090e-05 -2.6755779769682279e-04 -1.6897580876372373e-02  -8.1958720815589620e-05 1.9688942714204323e-04 -1.8103964027210442e-02  -6.8097860910130371e-05 1.1348736503262700e-04 -1.8859063921131177e-02  -1.7888573075361378e-05 -2.3338329739418058e-05 -1.3943352141523627e-02  -1.5855399194018594e-04 1.1797963311367964e-04 -1.5850555807872677e-02  -2.8273348307068720e-04 1.8752436621338023e-04 -1.4717947564892839e-02  -1.0072538139103611e-04 2.4585209714726806e-04 -1.8349772117590337e-02  1.4545359233322869e-04 7.6171193001890497e-04 -1.4079948417796225e-02  -2.6532579948237613e-05 3.8991150597592061e-04 -1.6714289197253068e-02  -1.9776498881989848e-04 9.7338192931261931e-05 -1.7842637458359258e-02  -1.1735631704365913e-04 3.8744482325203439e-05 -1.7040393069242064e-02  2.7922797343880558e-06 -1.6661922383306462e-08 -7.1965632731342673e-06  -4.3592709914254513e-07 -5.0059641913660900e-07 -5.5207161938321007e-06  -4.7384464363961086e-04 3.1181030500054266e-04 -1.4761036800024375e-02  2.4496948010338949e-04 -1.7492472640615891e-04 -1.2419301700740805e-02  8.1363276355488393e-05 4.1681397642106325e-05 -1.8559238824478727e-02  -3.9684675743811764e-06 3.1153433186008533e-05 -1.8385846017323532e-02  -4.0264650543240214e-06 7.9652489659059992e-06 -1.9435571350796245e-02  -2.4066724986037068e-05 1.4811979860315438e-05 -1.9402413825446864e-02  3.1314783678395566e-05 -4.1178471214284312e-05 -1.9026865804152672e-02  -2.3263104847245820e-06 1.0451133775866557e-06 -4.6389194918136178e-06  -7.1078512794181528e-07 7.2215796296363987e-07 -6.5499393846851559e-06  -4.8158334751011824e-05 -2.9997180538005899e-05 -1.6794134359302479e-02  2.8218349998007088e-05 2.7448477780611704e-05 -1.8920971308156238e-02  9.9682571814575874e-07 9.6231620652136954e-07 -1.2687306323885458e-05  -5.2588472308787094e-06 2.1522613754870049e-06 -1.6320321033282074e-05  -2.8486980528631800e-06 2.1565093077084431e-06 -9.7776102280141222e-06  -1.0154138590804918e-04 1.4522680214982717e-04 -1.5247329017123884e-02  -5.2595574263343198e-05 1.8016990370963940e-05 -1.8296934260421345e-02  -1.4338751922305170e-05 -5.5742904124426811e-05 -1.6681280464206218e-02  -4.0825730398873636e-05 3.1908197216665037e-05 -1.8740174957015715e-02  2.7137958790986880e-06 -1.0768052098800332e-04 -1.5715924104908682e-02  -5.3367845577778565e-05 -1.5415139650086225e-04 -1.4783114194157284e-02  1.7951556398919678e-04 9.2182438060807171e-06 -1.4795559977448370e-02  -1.1132758742897874e-05 6.3643833330632676e-05 -1.7555521341906435e-02  -3.0974747433918097e-04 -2.7062295817351838e-04 -1.4609533446360136e-02  1.2390638882409945e-04 -1.7532074553110541e-04 -1.2302482063339299e-02  -8.9644456452902559e-05 -8.5993637588810417e-05 -1.6712433377231582e-02  1.5222762620933156e-05 1.0864379781293827e-04 -1.5296284630015825e-02  9.0684039145944557e-05 -2.5831712993234661e-05 -1.6284482075695932e-02  7.6713566131886808e-05 1.4822957057558348e-05 -1.2637256745420362e-02  3.5363776431862516e-05 -4.6112368844274691e-06 -1.5552160771487166e-02  6.9537945246435319e-05 -8.3601811854496236e-06 -1.8113417742835140e-02  -4.0753769192014683e-05 -1.8398623792054847e-05 -1.8494301838212834e-02  -7.1422167088448771e-05 7.7048085581662510e-05 -1.2248732631827009e-02  4.2544447460219435e-05 -1.5287438270013601e-05 -1.8284460353568000e-02  5.8102132690251726e-06 -4.4382253174299209e-05 -1.7254048822976438e-02  -1.7087748616126288e-05 3.8804320356510731e-05 -1.7820984949525318e-02  3.0249201023333346e-05 -6.5193808403440679e-06 -1.9256372915922769e-02  -2.6034409542587148e-05 2.8785336852521374e-05 -1.9540252843542417e-02  -1.6669914636492459e-07 2.6865061512265266e-08 -3.7725406282794911e-06  2.2650346487976472e-07 -1.3111022997160272e-06 -3.6410924893920720e-06  1.9356077661750764e-06 -2.0906992491583883e-06 -2.5338311952769946e-06  2.0699501085442538e-05 4.0049898783685547e-05 -1.3542676697351302e-02  -2.1154348758933880e-05 1.4421545486275012e-05 -6.2981189530443476e-05  -9.5724633170569859e-06 9.1573120311058068e-06 -2.8394260683997391e-05  -2.1349057077296789e-05 9.4336564138043960e-06 -3.1005873441120956e-05  -9.4451796597986062e-06 2.5002733338492666e-05 -3.8203828364025885e-05  -5.7837528441228319e-05 5.1405713217171493e-05 -1.8673586342191979e-02  8.9504859835951343e-05 3.5163825509461673e-05 -1.9081111684984418e-02  6.3463460377319937e-05 -6.8593188468716543e-05 -1.2035444678185361e-02  -3.7907471064944418e-05 4.0029177950505409e-04 -1.5381839048654738e-02  2.3749044448969457e-04 6.0316329264749290e-06 -1.7024220969152140e-02  -8.0677469729003659e-06 1.1441063889972539e-04 -1.5691752057133738e-02  -1.5622306443757830e-04 4.2861339949851203e-05 -1.7968727478686865e-02  -2.8181292302470485e-07 -4.4899491973846969e-07 -4.0019104305222057e-06  1.3035259477071451e-06 4.6298250033435696e-06 -3.5537015387556239e-06  3.6728071627427795e-04 -3.5541733186800748e-04 -1.3848599866377799e-02  -1.3126647736328486e-04 1.0564232426647903e-04 -9.5130668985009340e-03  -6.7797936153577999e-05 -1.7391385814275767e-05 -1.6854083418211544e-02  -2.9008936275767017e-05 1.1772500048585656e-04 -1.8057130769551510e-02  7.8601351311176512e-06 5.9845808588396384e-06 4.4892930762561034e-07  -1.2474339851459627e-06 8.9028524863351186e-08 -3.2181622487169607e-06  -7.1530362952828124e-06 -1.2473587177654497e-06 -4.3589669183505621e-06  6.4419755941346474e-05 -9.4465472091707328e-06 -1.8501027662494254e-02  2.7332308870068511e-06 -5.6092128312506275e-05 -1.8514931698633264e-02  4.1411038047895367e-05 7.2469213838233374e-06 -1.7800642505162036e-02  1.3634813890112457e-04 7.7390300999064421e-05 -1.6070600017992775e-02  2.5364211333792791e-05 -2.6212202864458575e-05 -1.5489085979257203e-02  3.7827730558245559e-06 7.4069413461805824e-06 -1.9117754068167334e-02  9.4443672651824838e-06 -1.5934322364205896e-05 -1.9228063003061860e-02  -3.3634455074285286e-05 -3.8049864536494336e-05 -1.6655075021610840e-02  -7.5305614483432031e-05 -4.8198750537734801e-05 -1.7748396731710532e-02  7.5468513389183582e-07 1.3302331209156654e-05 -1.9410663679749782e-02  7.5932567872038392e-05 -1.2267178854145029e-04 -1.6857177145456280e-02  8.0486827554284819e-07 -1.2885381207507181e-06 -3.3478644201353049e-06  -3.4190848991976233e-06 -7.9634638855844769e-07 -3.2173610740614543e-06  2.8587962780815009e-04 -3.5546785899181907e-04 -1.3507888116376494e-02  -2.7138453714373542e-04 -2.4243610302121043e-05 -1.3391912679423639e-02  3.9975473665054063e-06 2.2950452785580421e-04 -1.7506935882720887e-02  5.1469105159281418e-07 1.8742676353236164e-04 -1.6994620630251575e-02  4.0891830450857493e-05 1.3511534461341216e-04 -1.9113604580645951e-02  -1.4819149177850959e-06 -7.7729702903610782e-07 -4.5744453355992407e-06  -8.7387997715742034e-07 2.5245376520171906e-07 -2.1077687629151081e-06  3.4135796902648626e-06 -1.2456796389647491e-04 -1.8890844992740151e-02  1.1550831663427429e-04 1.2582936380457330e-05 -1.4052727828573672e-02  -3.0133760925391921e-05 -8.2046251721434665e-05 -1.2822348914098693e-02  -6.2196110168188535e-05 1.3312936540602323e-04 -1.7142256564446633e-02  1.6869318222822036e-05 1.7161563164287990e-05 -1.9394258382798773e-02  1.3334521996927526e-06 2.1164737703217132e-07 -8.4685848576292702e-06  8.1450096873916419e-08 6.4982635420520135e-07 -6.6910653483535883e-06  -3.2511120146954185e-07 -9.1606495366589628e-08 -3.8974907843467524e-06  7.2074141947923171e-05 9.0222982192257533e-06 -1.5664769423352921e-02  2.6502028331479566e-05 1.6006921217330804e-05 -1.9119453090882046e-02  1.4011109382763650e-05 2.3123604097448987e-05 -1.9421855999355336e-02  -6.8896213741010475e-06 7.8398960301281352e-06 -1.6760699198751963e-02  4.5785269837540370e-05 1.4851730931953652e-05 -1.9094776473542234e-02  -2.9627362970548315e-05 -2.6153805362437738e-05 -1.9230498719402328e-02  8.8424053500814604e-06 4.3924268639759092e-06 -1.8499600395694767e-02  -1.0595555372041054e-07 -9.6529290892816388e-07 -4.5829856667331539e-06  -1.4715812126779148e-06 4.0528869941845565e-07 -4.0220122956124548e-06  -1.1131198579703750e-04 -6.9963300880261767e-05 -1.4177911679995051e-02  2.1658551922521976e-05 5.4267862334025436e-05 -1.3958304487618743e-02  1.3506526094622529e-04 -5.2290731200929959e-05 -1.8294964180019781e-02  6.0680177716247387e-05 -2.6434261595610687e-05 -1.8336171068470717e-02  2.0982990747370789e-07 -1.2923411619290312e-05 -1.9039552686251578e-02  4.6583877323967683e-05 -7.0096088061485066e-05 -1.6964504475653341e-02  5.9419966419654644e-05 -1.0606493861779650e-04 -1.6672755892507472e-02  -2.0058628205774553e-05 5.4056941950961877e-05 -1.6538971869185539e-02  2.5578532984552781e-04 -1.1999533607916368e-04 -1.7216873348261632e-02  7.2248539057063259e-05 1.0772683805468545e-05 -1.9336627213452813e-02  1.7453261276005456e-04 8.8050554006995470e-05 -1.9699452903865898e-02  1.0516519374736747e-04 1.7034878830272586e-05 -1.7748759993095699e-02  1.5362231775102280e-06 5.2554544382433450e-06 -1.9308966549854232e-02  1.1497012004852668e-04 -5.5258201948741514e-05 -1.8975595254704342e-02  4.8166923814251360e-05 -8.2740336128760226e-05 -1.9245783026447739e-02  2.1442284567389861e-05 -2.5607844819217516e-05 -1.9398428251704864e-02  6.2301547849708956e-05 3.7044888648071192e-05 -1.7410832986962128e-02  -3.7703263494160161e-05 3.0778077268000377e-05 -1.7470088362194863e-02  7.9322339567245752e-05 -5.2384058286425117e-05 -1.1203094198456614e-02  -4.5242399080480600e-06 -3.5654086862641721e-05 -1.6580585054947281e-02  -2.9515178911444072e-05 -9.6300038390600956e-05 -1.8912837237930528e-02  -1.4300816775509849e-04 -1.4803671433935201e-04 -1.7532495014626181e-02  4.4075170320618644e-06 1.7529802952947384e-04 -1.6504211563486214e-02  -1.3476507426477712e-04 2.1475875948122596e-05 -1.5339086666509951e-02  -5.5593952370564167e-05 -7.3281076392305220e-05 -1.7970207124046282e-02  -7.4540833366107948e-05 -8.1108221231245722e-05 -1.3386080898614599e-02  -2.1461916581094048e-04 9.7244172407408215e-04 -1.3442054766366441e-02  -6.0919538953980144e-04 6.9567053997394675e-04 -1.2745489006560881e-02  -2.3017723283778597e-05 -1.3287468589564185e-04 -1.6762975318710981e-02  -6.5578755795542114e-04 9.0139691274270753e-04 -1.6784526627851213e-02  1.2317877054511918e-04 2.6402724946037582e-04 -1.8062393442576596e-02  1.1558380729886530e-04 2.4525661033991490e-04 -1.6679596751339062e-02  1.5636036715229476e-06 1.2501908929825685e-06 -4.0881396471022710e-06  2.8732884184008043e-06 -5.7320195392736189e-06 -4.1871501587280961e-06  -1.1096960029686072e-06 4.6475161559720663e-06 -2.8553778432894206e-06  1.2616787493408894e-04 -8.0777123604808073e-05 -1.5031226047918848e-02  -1.1718890946949573e-04 2.1143053719567945e-05 -1.8100543988462062e-02  -9.7760506121092328e-05 9.6351200379187838e-05 -1.6534978728941052e-02  -1.5335737419216742e-04 2.5582990522960542e-04 -1.5620400539338634e-02  2.0329613419291261e-04 3.2518393286148223e-04 -1.4702347245898022e-02  -1.2448011780712728e-04 -9.1127120506870240e-05 -1.8094335425772316e-02  -1.4220518392521985e-04 -1.8100474077880244e-04 -1.7359402074753498e-02  9.3666145231311929e-05 -1.0203158873838022e-04 -1.4337109133239568e-02  -9.8455182359577259e-05 -8.7032272146941419e-05 -1.5104579047048379e-02  1.5811062807439777e-06 3.0384981083194285e-06 -8.2703953086483867e-06  -4.8202922863648357e-07 2.8629567398399795e-06 -7.7761444118817700e-06  2.6028708497514131e-05 3.9971659371389743e-04 -1.6736566071391491e-02  5.4474554592920032e-07 2.3514297874987358e-06 -1.17