<?xml version="1.0"?>
<VTKFile type="UnstructuredGrid"  version="0.1"  >
<UnstructuredGrid>
<Piece  NumberOfPoints="857" NumberOfCells="3763">
<Points>
<DataArray  type="Float64"  NumberOfComponents="3"  format="ascii">-0.0182597916573 0.126128911972 -0.119588643312  -0.0077641364187 0.0512270443141 -0.07050477713349999  -0.0237180162221 0.16240182519 -0.053058128804  -0.107877351344 0.105669431388 -0.0502408407629  -0.0444478429854 0.116080775857 -0.00235075876117  0.0393674038351 0.112876079977 -0.0491501875222  0.0248903874308 0.0489483103156 0.000152088920004  0.0314915925264 0.114928804338 0.0218031276017  -0.0657326281071 0.0685198307037 0.0497140102088  -0.0355357266963 0.164656624198 0.0508319064975  -0.010538729839 -0.0422629192472 -0.208358153701  -0.0239527057856 0.0135364839807 -0.242119863629  -0.0194642152637 -0.0775559768081 -0.263431429863  -0.08492307364939999 -0.0108216870576 -0.280446648598  -0.08293507993220001 -0.0361198186874 -0.159778758883  -0.0240796487778 -0.0824203491211 -0.148982465267  0.0430508553982 -0.121076337993 -0.234084427357  0.0307756774127 0.0324950888753 -0.198437720537  0.00352357281372 -0.00433266581967 -0.144715368748  -0.0456651262939 0.08372022956609999 0.342343091965  -0.116630032659 0.0117083769292 0.386158525944  -0.08223126828669999 0.0577075146139 0.289406776428  -0.0511222109199 0.00205342215486 0.300772219896  -0.0125984866172 0.0267426930368 0.351842552423  0.0303636882454 0.0561947338283 0.391145974398  -0.0524924062192 0.0543583929539 0.40361738205  -0.07944945245979999 0.130002260208 0.441037595272  -0.000730989675503 0.119443200529 0.385622620583  -0.078488714993 0.137875169516 0.332541137934  0.0142801422626 0.110509291291 0.27100610733  0.0224165506661 0.08303219079970001 0.331783413887  -0.0170432701707 0.161798536777 0.30022162199  0.000811119796708 -0.0515509881079 -0.08419398218390001  0.0888616070151 -0.015075173229 -0.0776951387525  -0.0989535748959 -0.0518730916083 -0.08125374466180001  -0.0433920919895 -0.09785594791170001 0.0106235472485  -0.0488061010838 0.0295096840709 -0.0131453983486  -0.25 0.25 0.5  -0.166666666667 0.25 0.5  -0.25 0.195066730511 0.445658150344  -0.19506166517 0.25 0.445542865294  -0.0213422998786 -0.126349791884 -0.045622177422  -0.117952652276 0.0158270020038 -0.16616243124  -0.0531469397247 0.0490713231266 -0.13630309701  0.0358348339796 -0.131537660956 -0.134171053767  0.0583617314696 -0.115307979286 -0.0462360456586  0.010585160926 -0.0606908276677 0.314250290394  0.078067921102 -0.133790805936 0.331458956003  0.0206208750606 -0.104583717883 0.36723652482  0.0300164371729 -0.13569638133 0.270959883928  0.0797956883907 -0.07311873137949999 0.388136893511  0.0291880238801 -0.0850581228733 0.220644980669  0.0788302049041 -0.07555303722620001 0.284453928471  -0.0465739220381 -0.108428947628 0.305151432753  -0.056692365557 -0.0812899768353 0.234353885055  0.10282895714 0.0630551427603 -0.0452189296484  0.178613707423 0.153893724084 -0.0703043565154  0.0750898644328 0.130835875869 -0.116260357201  0.0179002508521 -0.0400723591447 0.396018892527  0.07961820065980001 -0.020668130368 0.232235535979  -0.00726175494492 -0.022667773068 0.242156982422  0.0524490773678 0.0171752162278 0.310696065426  0.0103002395481 0.0813155695796 0.107229083776  0.00225681974553 -0.008687185123560001 0.0457225777209  0.177950121638 0.25 0.0405701099774  0.151375159621 0.202163234353 -0.00268407491967  0.13042794168 0.172564610839 0.0599601529539  0.184557154775 0.16295710206 -0.00737970136106  0.0827306732535 0.011830884032 0.0299163535237  0.106673434377 0.0676268041134 0.0663062110543  0.25 0.25 0  0.25 0.177947182503 0.0435581305687  0.0251978598535 -0.0201241951436 -0.0233656335622  -0.25 -0.25 0.25  -0.175495340629 -0.25 0.295351832328  -0.25 -0.175776260788 0.294629825204  -0.164853364229 -0.189889326692 0.246240898967  0.111295968676 0.25 -0.00354384794953  0.0417815256417 0.25 0.0264120515999  0.0577150444892 0.25 -0.0418173710713  0.035034801811 0.196921139956 -0.0497792549431  -0.115254960954 0.0352221727371 -0.0357825122774  0.0360979661345 0.0743419006467 -0.130612716079  0.08110298216340001 0.0143552683294 -0.135737240314  0.0281950440258 0.110801942647 -0.38559025526  -0.000352636008756 0.154027625918 -0.45018479228  0.0220217909664 0.07910815626379999 -0.445265561342  -0.041934799403 0.09297795593740001 -0.440330862999  -0.115356497467 0.128115877509 0.0303980205208  -0.08144567906859999 0.192924261093 -0.0396481454372  -0.0503155887127 -0.140062868595 0.370642662048  0.0181560348719 -0.191118896008 0.319997102022  -0.09442232549189999 -0.0766885429621 0.347179293633  -0.10306725651 -0.0245223585516 0.261891931295  -0.0371639840305 -0.192689821124 0.258922994137  -0.08778057992460001 -0.193450272083 0.293951839209  -0.116932563484 -0.137108251452 0.278956532478  -0.0434515699744 -0.19969072938 0.340430229902  -0.016621209681 -0.143479332328 0.208528921008  -0.0799133181572 -0.177766740322 0.206858798862  -0.0340202823281 -0.07231882214550001 0.405357718468  -0.153045728803 -0.0703692808747 0.28540495038  -0.0647673308849 -0.069349065423 -0.297796696424  -0.0468406006694 -0.118580199778 -0.331259429455  -0.0636249184608 -0.122360698879 -0.235275790095  -0.137311711907 -0.115820750594 -0.279358655214  -0.25 -0.25 0.333333333333  -0.00222280388698 -0.0275516584516 -0.327156513929  0.0233143884689 -0.124395690858 -0.330935031176  -0.00544846989214 -0.0444226972759 -0.392852008343  -0.07202984392639999 -0.0450558848679 -0.379192590714  -0.128861442208 -0.0482712239027 -0.325591087341  -0.0319190612757 0.25 0.27473160228  0.0259018652141 0.196524605155 0.343851953745  -0.0424101948738 0.196461260319 0.324036180973  -0.08801463991400001 0.193724930286 0.280150324106  -0.051391992718 0.129726842046 0.244459152222  0.0793330296874 0.131078347564 0.273738384247  0.0304427426308 0.197590425611 0.258007407188  0.139736711979 -0.103549621999 0.308288753033  0.117407329381 -0.00031748006586 0.284001767635  0.17845864594 0.0137020656839 0.2717012465  0.133446916938 -0.07468281686309999 0.252671837807  0.193237304688 0.0103836003691 0.32706490159  0.108656100929 -0.016409387812 0.370573759079  0.195593327284 -0.0705924406648 0.374003827572  0.204297035933 -0.0882691517472 0.283604085445  0.15987212956 -0.0232784096152 0.211559042335  0.103109702468 -0.0715631917119 0.185957938433  0.25 -0.177950121638 0.0405701099774  0.25 -0.111295968676 -0.00354384794953  0.168315500021 -0.181550845504 -0.0129796266556  0.203061833978 -0.0839376300573 0.0201103240252  -0.123973377049 0.0421161539853 0.0831994190812  0.10652089864 0.041568480432 0.133020982146  -0.00508088478819 0.00464248098433 0.118765294552  0.0384838804603 0.0542355030775 0.219570666552  0.0556482039392 0.09942726045850001 0.165778696537  0.25 -0.25 0  0.25 -0.17904445884 -0.0421267671166  0.0085972994566 0.139411628246 0.206887423992  -0.0427397117019 0.0734880268574 0.199836358428  0.25 -0.25 0.166666666667  0.177338154858 -0.25 0.209433902167  0.178222204231 -0.25 0.126578397361  0.180748909712 -0.154124230146 0.180074676871  0.118582360446 0.0498475395143 0.233844980597  0.113276541233 0.115120351315 0.208414897323  0.068451166153 0.123325429857 0.09300038218499999  0.08695217221980001 0.18308262527 0.11987875402  0.1366494596 0.0978636816144 0.125807240605  0.0170362386853 0.165571182966 0.116205818951  -0.075325883925 -0.13042730093 -0.120773427188  -0.191016584635 -0.1764793396 -0.0778442546725  -0.102759346366 -0.20253264904 -0.07015967369080001  -0.126150563359 -0.115044787526 -0.0573479756713  -0.138729035854 -0.104583211243 -0.134180948138  -0.147993162274 -0.138949289918 -0.203295826912  -0.180331096053 -0.192031860352 -0.160557568073  -0.194399222732 -0.0846866071224 -0.148938387632  -0.11259970814 -0.078034222126 -0.193649172783  0.0326924659312 -0.122268341482 0.0296003930271  0.0215157996863 -0.180560961366 -0.0757267251611  0.0956164896488 -0.0493310950696 -0.0164182558656  0.112129375339 -0.112067811191 -0.105549775064  0.127802968025 -0.106147237122 -0.0110959038138  -0.0854129120708 -0.015297700651 0.056893799454  -0.0204317308962 -0.0795602425933 0.117458000779  -0.178222204231 0.25 0.126578397361  -0.177947182503 0.25 0.0435581305687  -0.107976816083 0.25 0.0905854563709  -0.157577678561 0.178241759539 0.0969507619739  0.25 -0.25 0.333333333333  0.25 -0.25 0.25  0.175776260788 -0.25 0.294629825204  0.25 -0.175495340629 0.295351832328  0.0932372882962 -0.0430554822087 0.0724518448114  -0.044769000262 -0.00661279587075 0.403999477625  -0.194478780031 -0.0247275307775 0.332954645157  -0.173761367798 -0.0806607827544 0.396263659  -0.137637495995 0.00523930834606 0.315887242556  0.0864742994308 -0.139340251684 0.176064118743  0.105438224971 -0.136641919613 0.253711819649  0.0308670303835 -0.25 -0.136809572586  0.0367561832589 -0.25 -0.219583441074  0.0925811678171 -0.20055809617 -0.19996842742  0.0127155454829 -0.193433105946 -0.225977659225  0.0415658205748 -0.200880005956 0.196522325277  0.0373581312597 -0.119548290968 0.120048768818  -0.0954102815882 -0.25 0.346414074494  -0.101368582479 -0.25 0.251933327382  -0.0374909392175 -0.25 0.286229296012  0.0852289572358 0.109103307128 -0.27055695653  0.07707493752239999 0.127253636718 -0.199824258685  0.128097131848 0.07648140937090001 -0.209757223725  0.154867321253 0.13628205657 -0.212952241302  0.08678253740069999 0.189277544618 -0.274375885725  0.127699971199 0.0803090333939 -0.326344817877  0.0577741526067 0.0601542405784 -0.31936660409  0.0525139421225 0.129102528095 -0.326874881983  0.0251371748745 0.175572559237 -0.261228203773  0.0199144631624 0.0927290171385 -0.265960127115  -0.148952946067 -0.121583275497 -0.374568909407  -0.25 0.177950121638 0.0405701099774  -0.25 0.111295968676 -0.00354384794953  -0.175531774759 0.135734900832 0.0562076568604  -0.178730383515 0.191659659147 -0.00562386959791  -0.0244714934379 -0.108516678214 -0.387223660946  -0.09279609471560001 -0.170035287738 -0.445968538523  -0.0281062982976 -0.0
[...]
<PointData  Vectors="f_78"> 
<DataArray  type="Float64"  Name="f_78"  NumberOfComponents="3" format="ascii">5.8303091047438117e-06 1.4384209995789198e-06 -4.6355584904260250e-03  -2.4061908310281433e-06 3.3631826920317406e-06 -4.6438865717292506e-03  -1.1500714195332229e-06 -7.3571293238190673e-06 -4.4312176888178781e-03  -1.6737987836788679e-05 7.0495296341434583e-06 -4.2061364759977248e-03  -1.2227086821915351e-05 1.4191556679775462e-06 -4.6215035466382424e-03  5.7408216638977273e-07 1.2671378314864571e-05 -4.3893007660101941e-03  -3.5743588772012955e-06 4.1711436081171849e-06 -4.6815458087377353e-03  3.9752575864481792e-07 6.5494008405390806e-06 -4.3854088762591637e-03  -8.7315511190604915e-06 -3.8354241952722783e-06 -4.6455234220524220e-03  -8.3722366652658663e-06 9.6590688047699279e-06 -3.8642270045963966e-03  -1.7667255149827587e-06 5.9383954342395188e-06 -4.7087730962686054e-03  -1.8623939031058302e-06 1.2251706776573956e-07 -4.6838044527055828e-03  1.1291799931662926e-06 7.0499244826838306e-06 -4.6328145522395560e-03  -1.1830438370462870e-06 6.0365254675523780e-06 -4.6521113271293935e-03  5.9381730964180074e-06 6.2059357201431673e-06 -4.5699081914174445e-03  1.9489494337760568e-06 1.3587182684238875e-06 -4.5900426623114504e-03  8.3920181753413982e-06 3.1436260605164181e-06 -4.3921602414749338e-03  2.7056807970852190e-06 1.8483746062748774e-06 -4.6864008294644514e-03  3.0093162235449812e-06 4.3332121997137600e-07 -4.6763300464010673e-03  -8.2462002225084833e-06 3.3072911914943668e-05 -4.7576104633662809e-03  -8.6947243023076956e-05 1.6015952949871992e-05 -4.7616122908383145e-03  -1.6995536521436110e-05 2.4584768914827555e-05 -4.5933253405918044e-03  -1.6512213964717103e-05 1.5932723800159808e-05 -4.7354163639547241e-03  -1.4136639264696526e-06 8.8385510013944226e-06 -4.7746489826685336e-03  4.2959901476441685e-05 2.2979583167715020e-05 -4.8909445964084673e-03  -1.9299733687386957e-05 6.5436782137018822e-05 -5.0823543960711974e-03  -2.6360896530768273e-06 1.5104374917475962e-04 -4.1266488768040514e-03  -4.2900644272952617e-06 1.1417967101673868e-04 -4.4682447843105069e-03  -6.1533706934331341e-05 6.6263067572985428e-05 -4.5557900309793394e-03  -1.2211182007283558e-05 2.3702189412993029e-05 -4.6455306094334223e-03  4.3528507419226368e-06 4.4420611625915318e-05 -4.6164615706232974e-03  -6.3792030826654170e-06 1.6479185818179809e-05 -4.6420408303560661e-03  -1.8797338890160873e-06 3.2019609734964903e-06 -4.6618998797067221e-03  -6.0594961939595471e-06 2.2949541961095953e-07 -4.5195041311055419e-03  -7.8595423642497509e-06 -1.9450411283001191e-06 -4.5227705565864355e-03  -7.5322110865588413e-06 2.4462773522611197e-06 -4.5936409231003249e-03  -3.2430517223587751e-06 5.0480006655888386e-06 -4.6266803982419691e-03  6.9907292650583178e-06 -5.4150944382241050e-06 1.8372739895006635e-05  3.8316938524203107e-06 -9.8356138618567777e-06 1.0504700562428853e-05  5.0711928543420712e-06 2.4482659632720803e-06 1.2286490286836048e-05  1.1830226672331649e-07 -1.7121856566619996e-06 9.2606934694197540e-06  -9.9704366139779699e-06 7.3946745624477886e-06 -4.3145857396484945e-03  9.6046666445553693e-06 8.8584512429664095e-06 -4.5871746780496558e-03  1.3754544223243243e-06 5.1799135596746616e-06 -4.6821860506459168e-03  -2.8387756291377905e-06 -1.9939544682364075e-07 -4.5307339648867255e-03  1.0810715891128623e-06 -3.9208999961648009e-06 -4.3593351989268843e-03  3.3191422562382345e-06 -7.7645405393154348e-06 -4.7650417162948969e-03  -5.2301191202592268e-06 -2.6668084779937874e-05 -4.5292487086246698e-03  -5.8122547942731583e-05 -4.9057865852024893e-05 -4.7117240606519969e-03  -1.1314866932691820e-05 -3.8972831016837940e-06 -4.4171578000270781e-03  5.8132745153479012e-05 -6.2611383624175233e-05 -4.6309207400122062e-03  -4.4553170233481330e-06 -6.5445753989979207e-06 -4.6693252063845772e-03  -2.1086607828733241e-06 2.1047666181844495e-06 -4.6108554879570173e-03  -2.5032037937801043e-05 -2.6828416117259036e-05 -4.3610050215731437e-03  -1.7597627849137397e-05 -4.1721080576363065e-06 -4.5982929813605071e-03  -8.5095134120718381e-06 9.9767293834988203e-06 -4.4402167165883593e-03  2.5283831400116326e-05 4.1489422366463726e-05 -3.0396647257233075e-03  -3.0409990659150968e-06 3.5381321877724623e-06 -4.0980989315370503e-03  -2.0072629439444943e-05 1.2909395247738247e-05 -5.0105756835514487e-03  -1.4171642357974387e-06 1.5961225538602687e-06 -4.6347532524012398e-03  -4.8252920453465195e-06 5.6701333623588428e-06 -4.6960857236365856e-03  7.5716587698655954e-06 1.8163783472152960e-05 -4.7248517962715604e-03  -2.1576346232543185e-06 5.4317528642829280e-06 -4.5801427396170670e-03  -6.1019466497678389e-06 2.4017105721684440e-06 -4.7118877440865499e-03  9.8976043572861730e-07 -5.3982545450685142e-06 3.8594524901987058e-08  5.2359012915055925e-05 -1.7567323178062101e-06 -2.8857977830745781e-03  -2.1100410480226156e-05 -2.5139305150927734e-05 -3.5157891572552523e-03  -2.2201542363105720e-05 4.7093912151229961e-06 -3.1911532944558876e-03  -4.7755495561604925e-06 9.9829429171250512e-06 -4.6245294703825728e-03  -1.0924450198977994e-05 6.3804006443417144e-06 -4.5470673582516611e-03  4.5104446735284560e-06 4.7130088967778970e-06 1.2094987716622511e-06  -5.3501337386697769e-06 1.1008104809898734e-06 -3.9225607225930080e-07  -3.5937247306744001e-06 1.8667107136263968e-06 -4.7092525278640178e-03  -9.3956473609201854e-06 -6.1924449187867893e-06 -3.9156633463081924e-06  -2.2232024437069064e-06 6.6305313264567793e-06 6.6552546068860851e-07  1.0204765054344928e-05 2.7931206600429944e-07 5.2885512186947685e-07  2.3749609451216464e-06 -2.8711846252544897e-05 -2.3687991029726087e-03  1.2274311703122757e-06 1.1019559013363714e-06 2.3380613074697099e-06  -5.9350831844213099e-07 -6.4517368255344414e-07 3.6856469223892294e-07  -4.4805328326134070e-08 -4.9821871161949349e-07 5.2770481561418067e-07  -7.0105930870274043e-06 1.2758731569206788e-05 -3.4210499508368609e-03  -1.5767247233107769e-05 -1.1343083557494738e-06 -4.4025600623232488e-03  1.3426892480380780e-06 1.7241242997010115e-06 -4.6771499706813376e-03  6.7028980198116985e-06 1.3668432054042775e-06 -4.5709710822651193e-03  -4.8492582906632467e-06 -1.2663573721135594e-05 -4.4571915291671494e-03  1.2364567653596912e-05 -4.0049182076533195e-05 -3.5212744831551799e-03  4.0136718827657581e-06 -4.4736313314425579e-06 -4.6240285447007867e-03  6.4944672533841641e-06 -3.1033715297641437e-05 -4.4866843926172403e-03  -4.8484621835102662e-06 -1.6714311239303478e-05 -4.2826403898006222e-03  -3.9223427549752621e-05 1.9855069797914402e-05 -3.0227211349819773e-03  1.3389126813373604e-05 -7.0989087687183016e-05 -4.3441522897663962e-03  -1.4260478115641929e-05 8.9486709542313085e-06 -3.6869762397086859e-03  -3.8091985150965794e-05 -1.9196467065219959e-05 -4.3828390064448918e-03  -1.7709610397238847e-05 -5.0906658358964523e-06 -4.6061146664406333e-03  -3.0560592446385982e-05 9.3222073554197302e-06 -3.5937659961665681e-03  -3.5434849487733872e-05 -1.0024256053230640e-04 -3.3848658031045181e-03  -3.8737972338154896e-05 -2.6222710414309398e-05 -4.1074206256314708e-03  2.4588220531111265e-05 -3.4704650798060690e-05 -3.2253510085327153e-03  -5.7184473901219744e-07 4.6301765692398570e-06 -4.5794405117499928e-03  -7.5096716378374926e-06 2.5256212879411181e-05 -3.7506606724033733e-03  -5.2713427192923900e-05 -5.6845015274930957e-06 -4.7591344654652132e-03  -3.4477356651503811e-06 1.1232194958774424e-05 -3.4403367026802725e-03  4.7567564473760471e-06 7.5058447893867704e-06 -4.5963038382529431e-03  4.0234960653002953e-06 6.6545446199690546e-06 -4.4349261231332602e-03  3.9970891075855181e-06 -3.3519462332956636e-06 -4.2952277478776934e-03  1.2706482859681386e-06 1.4067487831389619e-05 -4.1044263186517079e-03  -2.0555193804699856e-06 -2.2080733726232638e-06 4.1226246555707481e-06  4.1984078914667154e-06 3.3046801462157322e-06 -4.6537040853496950e-03  -3.1059591525592104e-06 1.1671549572142916e-05 -4.6146972629252875e-03  3.0450680065401216e-06 1.5833964719983541e-05 -4.5962321556458135e-03  4.1647954760158578e-06 1.2597199957966736e-05 -4.4995948058262382e-03  9.5322917166534929e-06 8.6406066605941878e-07 -4.0674847681228254e-03  6.1470221171264121e-07 2.1441302644008245e-06 -3.7208728609295653e-08  2.6861982803532295e-05 8.6835276600889143e-05 -3.7769403556995192e-03  -5.9863137460782373e-05 1.0876207614692672e-04 -2.9454672080172746e-03  4.0390669522363289e-05 -1.4596343215385002e-05 -3.1567216594215871e-03  -6.5682646487132381e-06 2.3813195437307621e-05 -4.5919318357929987e-03  -6.6021024147689606e-06 1.5387895965668455e-05 -4.1481384170975674e-03  8.9655520448286475e-06 -4.5184900035253540e-05 -3.8124473486476538e-03  3.3055416646832142e-05 -4.9763307041237495e-06 -4.3375919099402326e-03  1.0309061629595157e-05 2.8693022785643724e-05 -4.6150992320359184e-03  -1.4638054129454713e-06 3.4015590216803971e-06 -3.4894320821611913e-03  -2.4082030534242887e-05 2.4676321686181376e-06 -3.8724430253870975e-03  -8.4779754753201976e-07 9.0260922847015917e-06 -3.5579267601981903e-03  6.7412766110173765e-05 2.0503917757844059e-05 -4.6554197822517192e-03  9.6965753924290067e-05 3.4589433229849317e-05 -3.4026937561462069e-03  7.8359585672928347e-06 3.6798432530476227e-05 -3.7869692776411859e-03  -2.4991726870085451e-05 7.7300828210714381e-06 -4.3338009945121962e-03  -1.3729276333424989e-05 9.8311992064559814e-07 -4.2160117618753930e-03  2.1386464415061892e-07 -2.9435668872597722e-06 -1.1270803855820157e-06  2.2828016020365381e-06 1.6694078167561406e-08 -1.3312218217667519e-06  -7.0712520586635238e-05 5.5849930846981425e-05 -3.1970533222787918e-03  4.3644691691705578e-05 -2.2171542435687596e-05 -2.8989583805481647e-03  1.0297008470627972e-05 6.8688262969769922e-06 -4.4123874829572526e-03  3.8707996016658357e-06 7.4821249890026409e-06 -4.4642009233081814e-03  -4.1165349715346635e-06 4.5226210282441566e-06 -4.6672300099573532e-03  -1.8586302866137392e-06 1.2434524913334790e-05 -4.6749203991348440e-03  3.4951268073598553e-06 2.3788994728913141e-06 -4.6075856905604040e-03  2.3701151748733106e-06 -4.2876483880494422e-06 2.3196778066314145e-06  -8.5111454040934037e-06 -7.5161140213170981e-07 -2.3699627283407017e-06  -5.3508670323287434e-06 2.5136876275459617e-06 -4.1097283467487651e-03  -4.2215577080094934e-06 1.5558095188726244e-05 -4.5859574756272692e-03  6.1612097913550559e-06 -6.8081923393865729e-06 -4.8370817007166027e-07  2.0568647303788934e-06 4.2649467546575453e-06 -3.7498287296921960e-07  1.4019809244865071e-06 7.2161181448125240e-06 1.6978265395346852e-06  -9.7437434290676452e-06 1.9632109740941799e-05 -3.4653098638837876e-03  7.7664755856397800e-06 1.9352794168861062e-05 -4.4101217832078375e-03  7.8433378004795145e-06 5.1685320696731294e-06 -4.0199686305982972e-03  -3.7649477971707866e-06 6.6912975036468034e-06 -4.4608029935657998e-03  6.2350410164830156e-06 -1.2748298351626911e-05 -3.6074116793543315e-03  -7.8331359674854254e-06 -2.3449667296751528e-05 -3.6668128590802546e-03  2.9674147672848634e-05 1.1226486108949096e-05 -3.5973561164023100e-03  -3.2886678388712085e-06 8.5226555397221883e-06 -4.2238912335874831e-03  -3.9597750879093970e-05 -3.3391046711426915e-05 -3.2520034783368955e-03  1.6342689019534191e-05 -3.5883383162782537e-05 -2.8124772391825165e-03  -2.0171335776888841e-05 -2.2088253833940479e-05 -4.0755018742322166e-03  3.6695225905895660e-06 1.6805977557593432e-05 -3.8354599247595565e-03  1.2383584372603147e-05 -2.0218961382554400e-06 -3.9893628030602066e-03  2.3516566537351096e-05 8.9865396960561713e-06 -2.8360285218886703e-03  -2.6102602863709723e-05 -3.1238716640012688e-05 -3.3924180514598797e-03  7.5571372458919345e-06 -4.9184906507247754e-07 -4.3841282745749931e-03  -6.6916045088597523e-06 -3.7279947679451675e-06 -4.4289287708848615e-03  -8.9107804022037946e-06 1.1988415308678752e-05 -2.8411796077491059e-03  8.7435071394328270e-06 -3.7096328671755263e-06 -4.4421744840914927e-03  1.9728696234112339e-06 -8.3805004419903525e-06 -4.1763824988680269e-03  -2.1039723461748779e-06 8.4809570229897139e-06 -4.2136302490462631e-03  -1.8500168643209131e-07 -1.0519626996965317e-06 -4.6279667376148111e-03  -7.4926026850374646e-06 -4.3054987693724940e-07 -4.6827389241691766e-03  -1.9905249808094139e-06 -6.4301053142377275e-06 3.9821997302886496e-07  -6.0807903669020249e-07 -8.8402683669589587e-06 8.7447399084945685e-08  3.2699922473888326e-06 1.7618136219889317e-06 1.6037672539684938e-06  5.0683529477027215e-06 -1.2485839092413488e-05 -3.1819635629252363e-03  5.7367403908968273e-06 -3.2258124525308889e-06 1.1452594917275322e-06  2.9966675646437426e-06 -6.6467878065593040e-06 -1.7708454093244622e-06  1.1137629421342853e-06 5.7771107967664741e-06 3.7457671723416074e-08  -5.0986174456364515e-06 -1.9417577427397753e-06 -1.5589135747137810e-06  -1.0434982708318588e-05 5.6186416557559167e-06 -4.5245081942902896e-03  -2.0488738305522473e-05 1.0156690508571222e-06 -4.9387121170416763e-03  -4.2168396455769195e-05 -5.4677754517115655e-05 -2.8232335322327592e-03  -9.6001174734250741e-05 -3.3689458981984610e-05 -3.9679101969599439e-03  4.4790996254703242e-06 -6.6124848947180309e-06 -4.2729943059420716e-03  -3.8042389497329326e-06 9.5103433688485102e-06 -3.9938336187114835e-03  -1.4309171561371763e-06 -1.3629752855099740e-05 -4.3276490784375050e-03  1.0823354078528226e-07 -1.4115260207949477e-06 1.0724408410532482e-06  1.9152680325242471e-06 5.8348746079493847e-06 1.7491478610249570e-06  4.9573760380814710e-05 -7.0056093185825845e-05 -3.1014540678562089e-03  -1.7331178943754051e-05 -2.9176584918828048e-06 -2.4525239941620438e-03  -8.2861852828363927e-06 -1.3428834562391583e-05 -3.8856691389258708e-03  -2.1032010364079311e-06 1.2866343003748363e-05 -4.3417192303885823e-03  6.3962526396268147e-07 7.3711337744620670e-06 3.2632510568461674e-06  1.0559371540904758e-06 -2.2781341253935746e-06 7.3133765447395887e-07  -1.6743536822539626e-06 -4.0911247607833087e-06 -3.3537699982832574e-07  1.0384979268148778e-05 -2.5799913985708526e-06 -4.5171122900031675e-03  3.1433447084777152e-06 -7.0699326580089510e-06 -4.4901702110481849e-03  7.8397825848720232e-06 3.2306589880024883e-06 -4.3038597511205106e-03  3.4592237006332329e-05 1.6219504603934041e-05 -3.9487439582643639e-03  -3.2890094471518425e-07 -7.8860710740940965e-06 -3.7660709935795739e-03  1.4466424139154940e-06 -1.5557816070521426e-06 -4.4924140821519442e-03  1.5680095783887300e-06 -4.8840395053313760e-06 -4.6157497647668312e-03  -6.8158593221223953e-06 -1.0382567295197825e-05 -4.0688340335964550e-03  -3.4149119884322197e-06 -6.3343639327520627e-06 -4.3952447212361190e-03  1.0044430583204582e-06 2.6723905671862394e-07 -4.6337910456684716e-03  1.6581878282199978e-05 -8.3531647490341929e-06 -4.0952854058868299e-03  5.9538133509682501e-06 -2.4247642644727828e-07 7.3297713568302797e-07  -5.7851344484586932e-06 -2.1826132486737332e-06 7.4476318462300810e-07  2.6061582902508112e-05 -4.1947818458011038e-05 -3.0344300199521231e-03  -2.6454449821494758e-05 -1.1861518529791000e-05 -3.0533185612138729e-03  1.7172843340458844e-06 5.0630014725631699e-05 -4.2499768813936099e-03  3.8325996969185887e-06 3.2092543078490941e-05 -3.9854979248982051e-03  9.0460684100023548e-06 2.6060606038878259e-05 -4.5567467849235641e-03  -7.3491054458240460e-06 5.2650665926710463e-06 -1.4057155552477659e-07  6.5835873473478162e-06 6.3231998175634041e-07 1.2346209789512431e-06  5.0725239222242303e-06 -2.0052836121866985e-05 -4.5583676270853427e-03  1.2207644547285206e-05 2.3726530017794912e-06 -3.4039206377762792e-03  -7.0012603964474741e-06 -1.4194946766739632e-05 -2.9835649405466590e-03  -8.8127276314183507e-06 1.9573961583380779e-05 -3.9813519806510701e-03  3.1889834693003921e-06 2.9746648383878244e-06 -4.6516490078861855e-03  1.2857872189269806e-06 6.4300339987885976e-07 -5.0762870149934457e-06  1.6759977652507162e-07 1.2481810485138932e-06 -3.1436932469693758e-06  -4.6118273584098849e-07 -8.8147407881475314e-08 7.0633197033384803e-07  1.4432943388480590e-05 -7.5746430466786521e-06 -3.6227405138834416e-03  5.1730521721622595e-06 2.8201447431157925e-06 -4.6222543907085377e-03  2.6175844401599512e-06 3.8477344782573103e-06 -4.6524127575703527e-03  -1.4970367238897375e-06 6.6923154362946857e-07 -4.0784793862831611e-03  1.0130013713425789e-05 1.8593529107815514e-06 -4.5667722949974815e-03  -1.7465795479904559e-06 -4.8238987357530977e-06 -4.6126871876733750e-03  -1.6867319996262187e-07 2.5691504336531805e-08 -4.4810005962832274e-03  -1.2874872509673049e-06 3.6038683944883567e-06 1.5916629823916050e-07  -1.0886824392108871e-08 -2.6614471017396873e-06 1.3049179950125521e-07  -2.3420063095093157e-08 -8.5060296770524258e-06 -3.1837976428362243e-03  2.7774959603533849e-06 1.2476421151437960e-06 -3.3058117354355255e-03  2.2129889721448186e-05 -5.0409599798254153e-06 -4.5046848857310815e-03  9.4371618309408544e-06 -3.9418065476007880e-06 -4.4309066998355906e-03  -1.2687666933191539e-05 -3.0111191853711803e-06 -4.5968300282050950e-03  5.8530220835793920e-09 -1.7252142637488669e-06 -4.1848217913489274e-03  -1.4095309535246616e-05 1.7572357958325914e-05 -4.0093207643488926e-03  -2.2964167441481503e-05 2.4359868418011162e-05 -4.1879638643100804e-03  -6.6363525358393346e-05 6.2739682396363913e-05 -4.2663732882002852e-03  1.3048821380309123e-05 2.6534997621697105e-06 -4.6398716773280134e-03  2.9582123638391438e-05 1.5723112470954145e-05 -4.6605538738662463e-03  2.2521429638234562e-05 4.4207413807082827e-06 -4.2823097322326050e-03  6.0073696754329646e-08 -3.3894801175587604e-07 -4.6473960294488486e-03  2.3425983747423952e-05 -9.1634017148746846e-06 -4.5002508154209460e-03  8.2074618477616469e-06 -1.2375627116004341e-05 -4.6011126174195765e-03  3.2924772644628225e-06 -5.9809537046682774e-06 -4.6464707797042679e-03  8.9268784583818141e-06 4.9568880783288267e-06 -4.3323965700685294e-03  -9.4086984757586585e-06 2.8639982988959546e-06 -4.2340337485860862e-03  1.4073938915638001e-05 -1.7560404628975292e-05 -2.6292313820964509e-03  -4.0079994096813621e-06 -1.1988153689591492e-05 -4.0501848429728114e-03  -1.2772896211725638e-05 -1.4799797676275396e-05 -4.5201926641041277e-03  -1.4684534230994509e-05 -1.2788209193839181e-05 -4.0251563660542097e-03  1.6299535793583061e-06 2.8546813036857688e-05 -3.6618609100920840e-03  -2.0242447671277398e-05 -2.5915821089179794e-06 -3.8940364621330020e-03  -1.7437022766465250e-05 -1.2281030716991108e-05 -4.1844499815173455e-03  -1.0029080189115373e-05 4.2955283911745176e-06 -3.3730076565514082e-03  7.7389702084127069e-05 2.8087555097451966e-05 -3.0947080687293549e-03  -1.4362063904875033e-05 1.1815415463050242e-05 -2.8614664207410371e-03  1.5288841446658072e-05 -3.2477554180357516e-05 -3.5603136723078035e-03  4.0034692257237912e-05 -6.6683787248775379e-06 -4.3193674162056907e-03  -1.8811530353837451e-04 -2.8267664950874530e-05 -4.1579198073598061e-03  -1.0286380788363858e-04 -5.5551746434780329e-05 -3.8570275252684961e-03  -5.6834725991743297e-07 -5.6255013957012152e-06 3.2024413573480314e-08  -1.0267348933558962e-06 -7.4762560242512364e-06 -1.0630463492978205e-06  2.1039932358049263e-07 6.9680343115996499e-06 9.8216204469601974e-07  -1.0943458326917305e-05 -1.3673441103473493e-05 -3.3712244681114939e-03  2.7238886982682617e-05 -4.7748214089063546e-05 -4.3181335449483452e-03  -1.2941743376164780e-05 -1.4376479810600557e-04 -3.8341295688022687e-03  -4.1439596807685466e-05 -7.8815738798653897e-05 -3.7543297932512193e-03  -1.5805611168850909e-05 2.5130557659765117e-06 -3.2466346963379062e-03  2.9708874643860573e-05 2.0449627828151799e-05 -4.5142766330966075e-03  7.0605259587101752e-05 6.0468424276392005e-05 -4.3230171302355291e-03  2.4515606518978175e-04 -4.7240193657951054e-06 -3.0974876151641465e-03  -5.4975303081773515e-06 4.9405282448457166e-06 -3.4872347739489042e-03  2.3814796757271228e-06 3.9273831167065331e-06 -5.5183732291422953e-06  -8.7621465728603349e-07 4.0110914994871424e-06 -4.6158921351570112e-06  4.9480130262350308e-06 7.2555372943039920e-05 -3.8016222395185401e-03  -4.3449190378919300e-06 7.5996620059333469e-06 -2.3869223610854