<?xml version="1.0"?>
<VTKFile type="UnstructuredGrid"  version="0.1"  >
<UnstructuredGrid>
<Piece  NumberOfPoints="857" NumberOfCells="3763">
<Points>
<DataArray  type="Float64"  NumberOfComponents="3"  format="ascii">-0.0182597916573 0.126128911972 -0.119588643312  -0.0077641364187 0.0512270443141 -0.07050477713349999  -0.0237180162221 0.16240182519 -0.053058128804  -0.107877351344 0.105669431388 -0.0502408407629  -0.0444478429854 0.116080775857 -0.00235075876117  0.0393674038351 0.112876079977 -0.0491501875222  0.0248903874308 0.0489483103156 0.000152088920004  0.0314915925264 0.114928804338 0.0218031276017  -0.0657326281071 0.0685198307037 0.0497140102088  -0.0355357266963 0.164656624198 0.0508319064975  -0.010538729839 -0.0422629192472 -0.208358153701  -0.0239527057856 0.0135364839807 -0.242119863629  -0.0194642152637 -0.0775559768081 -0.263431429863  -0.08492307364939999 -0.0108216870576 -0.280446648598  -0.08293507993220001 -0.0361198186874 -0.159778758883  -0.0240796487778 -0.0824203491211 -0.148982465267  0.0430508553982 -0.121076337993 -0.234084427357  0.0307756774127 0.0324950888753 -0.198437720537  0.00352357281372 -0.00433266581967 -0.144715368748  -0.0456651262939 0.08372022956609999 0.342343091965  -0.116630032659 0.0117083769292 0.386158525944  -0.08223126828669999 0.0577075146139 0.289406776428  -0.0511222109199 0.00205342215486 0.300772219896  -0.0125984866172 0.0267426930368 0.351842552423  0.0303636882454 0.0561947338283 0.391145974398  -0.0524924062192 0.0543583929539 0.40361738205  -0.07944945245979999 0.130002260208 0.441037595272  -0.000730989675503 0.119443200529 0.385622620583  -0.078488714993 0.137875169516 0.332541137934  0.0142801422626 0.110509291291 0.27100610733  0.0224165506661 0.08303219079970001 0.331783413887  -0.0170432701707 0.161798536777 0.30022162199  0.000811119796708 -0.0515509881079 -0.08419398218390001  0.0888616070151 -0.015075173229 -0.0776951387525  -0.0989535748959 -0.0518730916083 -0.08125374466180001  -0.0433920919895 -0.09785594791170001 0.0106235472485  -0.0488061010838 0.0295096840709 -0.0131453983486  -0.25 0.25 0.5  -0.166666666667 0.25 0.5  -0.25 0.195066730511 0.445658150344  -0.19506166517 0.25 0.445542865294  -0.0213422998786 -0.126349791884 -0.045622177422  -0.117952652276 0.0158270020038 -0.16616243124  -0.0531469397247 0.0490713231266 -0.13630309701  0.0358348339796 -0.131537660956 -0.134171053767  0.0583617314696 -0.115307979286 -0.0462360456586  0.010585160926 -0.0606908276677 0.314250290394  0.078067921102 -0.133790805936 0.331458956003  0.0206208750606 -0.104583717883 0.36723652482  0.0300164371729 -0.13569638133 0.270959883928  0.0797956883907 -0.07311873137949999 0.388136893511  0.0291880238801 -0.0850581228733 0.220644980669  0.0788302049041 -0.07555303722620001 0.284453928471  -0.0465739220381 -0.108428947628 0.305151432753  -0.056692365557 -0.0812899768353 0.234353885055  0.10282895714 0.0630551427603 -0.0452189296484  0.178613707423 0.153893724084 -0.0703043565154  0.0750898644328 0.130835875869 -0.116260357201  0.0179002508521 -0.0400723591447 0.396018892527  0.07961820065980001 -0.020668130368 0.232235535979  -0.00726175494492 -0.022667773068 0.242156982422  0.0524490773678 0.0171752162278 0.310696065426  0.0103002395481 0.0813155695796 0.107229083776  0.00225681974553 -0.008687185123560001 0.0457225777209  0.177950121638 0.25 0.0405701099774  0.151375159621 0.202163234353 -0.00268407491967  0.13042794168 0.172564610839 0.0599601529539  0.184557154775 0.16295710206 -0.00737970136106  0.0827306732535 0.011830884032 0.0299163535237  0.106673434377 0.0676268041134 0.0663062110543  0.25 0.25 0  0.25 0.177947182503 0.0435581305687  0.0251978598535 -0.0201241951436 -0.0233656335622  -0.25 -0.25 0.25  -0.175495340629 -0.25 0.295351832328  -0.25 -0.175776260788 0.294629825204  -0.164853364229 -0.189889326692 0.246240898967  0.111295968676 0.25 -0.00354384794953  0.0417815256417 0.25 0.0264120515999  0.0577150444892 0.25 -0.0418173710713  0.035034801811 0.196921139956 -0.0497792549431  -0.115254960954 0.0352221727371 -0.0357825122774  0.0360979661345 0.0743419006467 -0.130612716079  0.08110298216340001 0.0143552683294 -0.135737240314  0.0281950440258 0.110801942647 -0.38559025526  -0.000352636008756 0.154027625918 -0.45018479228  0.0220217909664 0.07910815626379999 -0.445265561342  -0.041934799403 0.09297795593740001 -0.440330862999  -0.115356497467 0.128115877509 0.0303980205208  -0.08144567906859999 0.192924261093 -0.0396481454372  -0.0503155887127 -0.140062868595 0.370642662048  0.0181560348719 -0.191118896008 0.319997102022  -0.09442232549189999 -0.0766885429621 0.347179293633  -0.10306725651 -0.0245223585516 0.261891931295  -0.0371639840305 -0.192689821124 0.258922994137  -0.08778057992460001 -0.193450272083 0.293951839209  -0.116932563484 -0.137108251452 0.278956532478  -0.0434515699744 -0.19969072938 0.340430229902  -0.016621209681 -0.143479332328 0.208528921008  -0.0799133181572 -0.177766740322 0.206858798862  -0.0340202823281 -0.07231882214550001 0.405357718468  -0.153045728803 -0.0703692808747 0.28540495038  -0.0647673308849 -0.069349065423 -0.297796696424  -0.0468406006694 -0.118580199778 -0.331259429455  -0.0636249184608 -0.122360698879 -0.235275790095  -0.137311711907 -0.115820750594 -0.279358655214  -0.25 -0.25 0.333333333333  -0.00222280388698 -0.0275516584516 -0.327156513929  0.0233143884689 -0.124395690858 -0.330935031176  -0.00544846989214 -0.0444226972759 -0.392852008343  -0.07202984392639999 -0.0450558848679 -0.379192590714  -0.128861442208 -0.0482712239027 -0.325591087341  -0.0319190612757 0.25 0.27473160228  0.0259018652141 0.196524605155 0.343851953745  -0.0424101948738 0.196461260319 0.324036180973  -0.08801463991400001 0.193724930286 0.280150324106  -0.051391992718 0.129726842046 0.244459152222  0.0793330296874 0.131078347564 0.273738384247  0.0304427426308 0.197590425611 0.258007407188  0.139736711979 -0.103549621999 0.308288753033  0.117407329381 -0.00031748006586 0.284001767635  0.17845864594 0.0137020656839 0.2717012465  0.133446916938 -0.07468281686309999 0.252671837807  0.193237304688 0.0103836003691 0.32706490159  0.108656100929 -0.016409387812 0.370573759079  0.195593327284 -0.0705924406648 0.374003827572  0.204297035933 -0.0882691517472 0.283604085445  0.15987212956 -0.0232784096152 0.211559042335  0.103109702468 -0.0715631917119 0.185957938433  0.25 -0.177950121638 0.0405701099774  0.25 -0.111295968676 -0.00354384794953  0.168315500021 -0.181550845504 -0.0129796266556  0.203061833978 -0.0839376300573 0.0201103240252  -0.123973377049 0.0421161539853 0.0831994190812  0.10652089864 0.041568480432 0.133020982146  -0.00508088478819 0.00464248098433 0.118765294552  0.0384838804603 0.0542355030775 0.219570666552  0.0556482039392 0.09942726045850001 0.165778696537  0.25 -0.25 0  0.25 -0.17904445884 -0.0421267671166  0.0085972994566 0.139411628246 0.206887423992  -0.0427397117019 0.0734880268574 0.199836358428  0.25 -0.25 0.166666666667  0.177338154858 -0.25 0.209433902167  0.178222204231 -0.25 0.126578397361  0.180748909712 -0.154124230146 0.180074676871  0.118582360446 0.0498475395143 0.233844980597  0.113276541233 0.115120351315 0.208414897323  0.068451166153 0.123325429857 0.09300038218499999  0.08695217221980001 0.18308262527 0.11987875402  0.1366494596 0.0978636816144 0.125807240605  0.0170362386853 0.165571182966 0.116205818951  -0.075325883925 -0.13042730093 -0.120773427188  -0.191016584635 -0.1764793396 -0.0778442546725  -0.102759346366 -0.20253264904 -0.07015967369080001  -0.126150563359 -0.115044787526 -0.0573479756713  -0.138729035854 -0.104583211243 -0.134180948138  -0.147993162274 -0.138949289918 -0.203295826912  -0.180331096053 -0.192031860352 -0.160557568073  -0.194399222732 -0.0846866071224 -0.148938387632  -0.11259970814 -0.078034222126 -0.193649172783  0.0326924659312 -0.122268341482 0.0296003930271  0.0215157996863 -0.180560961366 -0.0757267251611  0.0956164896488 -0.0493310950696 -0.0164182558656  0.112129375339 -0.112067811191 -0.105549775064  0.127802968025 -0.106147237122 -0.0110959038138  -0.0854129120708 -0.015297700651 0.056893799454  -0.0204317308962 -0.0795602425933 0.117458000779  -0.178222204231 0.25 0.126578397361  -0.177947182503 0.25 0.0435581305687  -0.107976816083 0.25 0.0905854563709  -0.157577678561 0.178241759539 0.0969507619739  0.25 -0.25 0.333333333333  0.25 -0.25 0.25  0.175776260788 -0.25 0.294629825204  0.25 -0.175495340629 0.295351832328  0.0932372882962 -0.0430554822087 0.0724518448114  -0.044769000262 -0.00661279587075 0.403999477625  -0.194478780031 -0.0247275307775 0.332954645157  -0.173761367798 -0.0806607827544 0.396263659  -0.137637495995 0.00523930834606 0.315887242556  0.0864742994308 -0.139340251684 0.176064118743  0.105438224971 -0.136641919613 0.253711819649  0.0308670303835 -0.25 -0.136809572586  0.0367561832589 -0.25 -0.219583441074  0.0925811678171 -0.20055809617 -0.19996842742  0.0127155454829 -0.193433105946 -0.225977659225  0.0415658205748 -0.200880005956 0.196522325277  0.0373581312597 -0.119548290968 0.120048768818  -0.0954102815882 -0.25 0.346414074494  -0.101368582479 -0.25 0.251933327382  -0.0374909392175 -0.25 0.286229296012  0.0852289572358 0.109103307128 -0.27055695653  0.07707493752239999 0.127253636718 -0.199824258685  0.128097131848 0.07648140937090001 -0.209757223725  0.154867321253 0.13628205657 -0.212952241302  0.08678253740069999 0.189277544618 -0.274375885725  0.127699971199 0.0803090333939 -0.326344817877  0.0577741526067 0.0601542405784 -0.31936660409  0.0525139421225 0.129102528095 -0.326874881983  0.0251371748745 0.175572559237 -0.261228203773  0.0199144631624 0.0927290171385 -0.265960127115  -0.148952946067 -0.121583275497 -0.374568909407  -0.25 0.177950121638 0.0405701099774  -0.25 0.111295968676 -0.00354384794953  -0.175531774759 0.135734900832 0.0562076568604  -0.178730383515 0.191659659147 -0.00562386959791  -0.0244714934379 -0.108516678214 -0.387223660946  -0.09279609471560001 -0.170035287738 -0.445968538523  -0.0281062982976 -0.0
[...]
<PointData  Vectors="f_78"> 
<DataArray  type="Float64"  Name="f_78"  NumberOfComponents="3" format="ascii">5.4277865208555416e-06 1.7806947660656976e-06 -4.6338229725669958e-03  -2.2235026360580825e-06 3.1405259829907887e-06 -4.6558753108337505e-03  -3.2718816927007781e-07 -6.5634144646486922e-06 -4.4395658219981574e-03  -1.6119606310385158e-05 6.9417859892408039e-06 -4.2302872951925953e-03  -1.1768353280913370e-05 1.8434755238171545e-06 -4.6174969537170337e-03  6.4297505554045748e-07 1.1479659846856401e-05 -4.4181480688766797e-03  -3.4595896379485379e-06 3.7447468720948301e-06 -4.6916153229681961e-03  -3.5941654048100187e-07 6.4341034045711154e-06 -4.4017762039617681e-03  -8.6156112341174293e-06 -3.3519223640199094e-06 -4.6520852133329739e-03  -7.3675968602256509e-06 6.9896692705588036e-06 -3.8697815007726587e-03  -1.6442678192859872e-06 5.6739569248544574e-06 -4.7152982534895060e-03  -1.8415486514880100e-06 2.3949879663971009e-08 -4.6934516285031527e-03  1.0101308636565258e-06 6.7733942680616388e-06 -4.6448787625248357e-03  -1.1813770328141085e-06 5.6414233025666243e-06 -4.6615502162923152e-03  4.8529786552193596e-06 5.3318460950593003e-06 -4.5930341767273664e-03  1.7204050831269887e-06 1.3026910980288393e-06 -4.6044331343130188e-03  7.8516870294074601e-06 3.7070981991535696e-06 -4.4123105311998602e-03  2.6589483303660028e-06 1.6284516515859577e-06 -4.6981262092122581e-03  2.7405936588147120e-06 6.0918559683554345e-07 -4.6873395525317101e-03  -1.0894415972518271e-05 3.8003808354634195e-05 -4.7719017676738432e-03  -8.4247194382185080e-05 1.6455836896790405e-05 -4.7266746084647163e-03  -1.7904835072070050e-05 2.3694188001054452e-05 -4.6074701177915107e-03  -1.6836059000704065e-05 1.5934161408579546e-05 -4.7447688570717806e-03  -4.2418799741510501e-06 7.3469294398476230e-06 -4.7884497801982786e-03  4.2476588166999200e-05 2.3581266003791273e-05 -4.8700038613471702e-03  -2.1828720462071477e-05 6.1553550573735012e-05 -5.0508536722365721e-03  -8.9059680289845627e-06 1.4736148343938500e-04 -4.1278862360731427e-03  -5.0559689206560561e-06 1.1482909707594965e-04 -4.4471248189691089e-03  -5.8632945691785586e-05 6.4438537252254439e-05 -4.5654076886390308e-03  -1.0982199102625811e-05 2.2361225323633014e-05 -4.6569109957399959e-03  4.7076923377736709e-06 4.4471421105209705e-05 -4.6407921011586218e-03  -5.0503487655771339e-06 1.7370746372646780e-05 -4.6599854349774986e-03  -1.8965352810360342e-06 2.8911946415042327e-06 -4.6684678272935114e-03  -5.0420375033694448e-06 7.3123350039893463e-08 -4.5355609058055687e-03  -7.1957794302129559e-06 -1.8293045931201091e-06 -4.5331814238604301e-03  -7.7084079202723538e-06 2.2610085436736451e-06 -4.6073007919644141e-03  -3.3172467742955178e-06 4.4213607252327802e-06 -4.6394882331487440e-03  7.1477665879136593e-06 -5.1454027199950902e-06 1.7993170038291219e-05  4.1394923338250321e-06 -9.7497484768505067e-06 1.0567558261530191e-05  5.4134928325426781e-06 1.8554447504611253e-06 1.2191575740140569e-05  4.9842773608490498e-07 -1.9579387359427014e-06 8.9364414108467295e-06  -9.1172338115514893e-06 6.2024253532770773e-06 -4.3308059361313600e-03  8.1094364541332325e-06 7.6549859334253250e-06 -4.5915567671684495e-03  1.3634306061031633e-06 4.7702361970455945e-06 -4.6846805140053028e-03  -1.8262317839550637e-06 -3.1029419716871656e-07 -4.5492932012266129e-03  7.0185535234345221e-07 -3.5007279988882520e-06 -4.3808250699841665e-03  1.7063935303674019e-06 -7.6894223881933106e-06 -4.7785494908249328e-03  -4.3649756213841008e-06 -2.6406276800776301e-05 -4.5472325988585548e-03  -5.2895306426776335e-05 -4.8647025654044085e-05 -4.6972597600224977e-03  -1.1606455130339246e-05 -3.7701223419083143e-06 -4.4361672125360300e-03  5.3895113416265235e-05 -5.6587627888708819e-05 -4.6529047854123196e-03  -5.1887245973650121e-06 -5.7848670086649175e-06 -4.6800286836083211e-03  -1.6668425737059300e-06 1.7455390413854393e-06 -4.6258062907351249e-03  -2.3597211629743695e-05 -2.5614641673012585e-05 -4.3927077024272605e-03  -1.7507182762544858e-05 -4.4303244479622837e-06 -4.6157578362766710e-03  -7.5166542894956990e-06 9.6579481651507867e-06 -4.4531186161017909e-03  2.1923374484018031e-05 3.6566582468168812e-05 -3.0042035016274687e-03  -1.7195409239440501e-06 2.6767806141040302e-06 -4.1024441739919123e-03  -1.6313837421841870e-05 1.1931657555849541e-05 -4.9881478384392192e-03  -1.5178370238361545e-06 2.2507696091579275e-06 -4.6508105563829397e-03  -5.0540284940686601e-06 5.5056934415301417e-06 -4.7083350742511852e-03  7.0782100025580184e-06 1.7835915076364846e-05 -4.7379392218419086e-03  -2.6648950682089550e-06 5.4570557975705134e-06 -4.5923964062168287e-03  -6.0498508684124868e-06 2.3014892229853881e-06 -4.7193968406575963e-03  1.4799504226948418e-06 -6.0257988553100892e-06 7.2740786767501597e-09  4.8421755193001981e-05 -2.1736621885942670e-06 -2.8814871133680132e-03  -2.0319818268375448e-05 -1.8874561262686910e-05 -3.5239593740862417e-03  -2.0989525220576708e-05 2.3413243645711249e-06 -3.1263129901917376e-03  -4.2952592622924627e-06 9.2312130889001917e-06 -4.6351251386842762e-03  -9.4492791502589137e-06 6.5621384447499066e-06 -4.5650996663623346e-03  5.3612451190693012e-06 5.4917917747855965e-06 1.3805614265317406e-06  -6.1004533465309349e-06 1.2915425489651437e-06 -4.1991027983635611e-07  -3.4181323025345794e-06 1.7368317734193404e-06 -4.7137130719250896e-03  -9.7432232477719633e-06 -6.5509606370767114e-06 -3.4474562022754803e-06  -2.2685589867531481e-06 6.8285901080260872e-06 4.4322519258035924e-07  1.0497041332988299e-05 1.4251427166642229e-07 2.8819680352811705e-07  1.4696444407905087e-06 -2.6307456328870240e-05 -2.3142474531004402e-03  1.4288013345762941e-06 1.3128500210510579e-06 2.4151782700406744e-06  -5.3787251136273020e-07 -5.9403482206366432e-07 4.0149402229144102e-07  8.9147035965412385e-08 -7.3258552853711439e-07 5.8981408716830345e-07  -5.7894324914559479e-06 1.2730450980565951e-05 -3.4176837407440628e-03  -1.4225106621886825e-05 -8.4250852860032602e-07 -4.4172520802188454e-03  1.3024291815650289e-06 1.4809344066246273e-06 -4.6746562972180185e-03  6.0100439159816369e-06 1.7601847697300791e-06 -4.5837637366847213e-03  -4.4995615496140356e-06 -1.1888183316597506e-05 -4.4783134548933021e-03  1.2110167240829466e-05 -3.7602180854710016e-05 -3.5213003487964607e-03  3.4637387258950929e-06 -4.3657738281721028e-06 -4.6398099483113261e-03  6.0311439926787843e-06 -2.8652321801862026e-05 -4.4950873428875795e-03  -4.1334053823403323e-06 -1.4017109221283701e-05 -4.2787220654789170e-03  -3.8033070180500903e-05 2.1041241161307267e-05 -3.0109485857901016e-03  6.7307601403616219e-06 -6.8576280528165166e-05 -4.3391075188874773e-03  -1.3380258408855341e-05 5.0282056755440111e-06 -3.6584129659402720e-03  -3.6926511184326272e-05 -2.0285775211277678e-05 -4.3964495068206612e-03  -1.8070859348393878e-05 -4.8551379300460884e-06 -4.6197116907707968e-03  -3.0235873733606317e-05 7.0959911884127635e-06 -3.5715764610511256e-03  -3.3179062572941703e-05 -9.4345379031611712e-05 -3.3403222620295913e-03  -3.8766508522826768e-05 -2.5936056870201586e-05 -4.1129105628526065e-03  2.2050460469010714e-05 -3.5180255685240970e-05 -3.2068904065087871e-03  -2.0395213318852846e-06 4.3928242571826287e-06 -4.6029882148797873e-03  -7.3908239386614580e-06 2.2166396233071833e-05 -3.7635699280523867e-03  -4.8694162738592884e-05 -9.8499362397394269e-06 -4.7633410166595305e-03  -5.0902718203694648e-06 1.1198534842154010e-05 -3.4768257431467024e-03  3.6770823228472887e-06 7.5331840196600240e-06 -4.6091413730362813e-03  3.3078053519611536e-06 6.7337508023235046e-06 -4.4401835808639241e-03  3.5804438569247367e-06 -2.7739334746297706e-06 -4.3205343607108891e-03  1.2177012172619649e-06 1.3962944840286205e-05 -4.1394156524362374e-03  -1.9400372919141806e-06 -2.2164410983246570e-06 4.2605206020620690e-06  3.6220918026405074e-06 2.9725344011216179e-06 -4.6674965524349053e-03  -3.3274043432399423e-06 1.1203989818729636e-05 -4.6157480945660740e-03  2.6864576646107054e-06 1.4947154286374925e-05 -4.6081293801306248e-03  3.3221418062865586e-06 1.1401904283218672e-05 -4.5160969499716376e-03  8.9154216983637218e-06 1.0295008148209855e-06 -4.1300040138685153e-03  5.8622490432580150e-07 2.1158682372711651e-06 -5.1651342955587625e-08  2.5491371965796581e-05 8.5969262491576641e-05 -3.7568235527112486e-03  -5.1823031100757347e-05 1.1110421447326160e-04 -2.9335564428955049e-03  3.2326245746260094e-05 -8.0363464117331616e-06 -3.0995381807781019e-03  -7.1970421313168483e-06 2.2472591687480259e-05 -4.5909441989296128e-03  -4.6925397432145825e-06 1.6913711638406073e-05 -4.1810159304183758e-03  7.7844884030745517e-06 -4.1140754901307917e-05 -3.7639337672033995e-03  3.2489657558841091e-05 -4.7429176581818633e-06 -4.3373889443705403e-03  1.1532639296354757e-05 2.7416702033541085e-05 -4.6263808864376796e-03  -2.6156836112079366e-06 5.7663538064800262e-06 -3.5283904088706246e-03  -2.3068180723732407e-05 2.1979187553794103e-06 -3.9140454218317567e-03  2.3166565431997424e-06 8.9000982257082266e-06 -3.5668666270812031e-03  6.5502770379993682e-05 1.9578487073455524e-05 -4.6326480928051356e-03  9.8834915439952530e-05 3.2379806981074855e-05 -3.3507530505891355e-03  9.4319250437145542e-06 3.6331121719276410e-05 -3.7425739730922191e-03  -2.2418972040513427e-05 7.6511521313459357e-06 -4.3575715742184438e-03  -1.2978852515104294e-05 1.8570798720873844e-06 -4.2510686661645786e-03  -3.8173736116704192e-07 -3.1351731598647175e-06 -1.2460888783066968e-06  2.8073228802441231e-06 1.9551450033446695e-07 -1.5603564057049667e-06  -6.1262780313375205e-05 4.9488371790476923e-05 -3.0742046770346281e-03  3.8750084798475235e-05 -1.7687887883651156e-05 -2.8824227559615403e-03  9.1774438705516274e-06 5.9932690391033489e-06 -4.4131398766874951e-03  3.6443835002122403e-06 7.3338418006498369e-06 -4.4841615952049734e-03  -4.1616692406847462e-06 4.5254003324091667e-06 -4.6768197200740972e-03  -1.8124286516991417e-06 1.1872237603159626e-05 -4.6837695489649438e-03  2.2117041699862866e-06 3.3582008471015733e-06 -4.6217848483431660e-03  3.1545368761437470e-06 -5.1053503977402939e-06 2.6808803710188711e-06  -9.6580934902381473e-06 -9.0587614974061360e-07 -2.5144291494464370e-06  -3.5395374180421858e-06 2.2770909199895962e-06 -4.1435670474794951e-03  -4.6285799539420925e-06 1.4514672035924958e-05 -4.6035463864790580e-03  6.6166756382788471e-06 -7.5401008932635676e-06 -6.6610219735791175e-07  2.1558617467755162e-06 5.1038296931075107e-06 -4.6376221196092118e-07  1.6023229591249643e-06 7.9640809959339117e-06 1.8901395017620458e-06  -9.0541053616256182e-06 1.9219409841129801e-05 -3.4132458236009965e-03  7.4522322908840089e-06 1.9139203247924429e-05 -4.4254140580308752e-03  7.1404455014896596e-06 6.5007671177475876e-06 -4.0340085617666796e-03  -3.1630537598843735e-06 6.3574853624140286e-06 -4.4559918223263471e-03  6.9794444033769668e-06 -1.1365994623803429e-05 -3.5804156503347444e-03  -6.8295566051831072e-06 -2.0682462002993011e-05 -3.7085478454232761e-03  2.7036322257606373e-05 1.1143030288915829e-05 -3.6075127569973318e-03  -3.5210436696985432e-06 7.7470365818286652e-06 -4.2357623466304298e-03  -3.3068426604431369e-05 -2.8279381158005858e-05 -3.1967509276635084e-03  1.4134190029588142e-05 -3.3273545558672997e-05 -2.7974031823243383e-03  -1.9966541602642324e-05 -2.1117604322344663e-05 -4.0991861732345824e-03  4.2123718904762612e-06 1.4937792285091613e-05 -3.8839929024768885e-03  1.0653983553256005e-05 -1.1349501884686689e-06 -4.0263167699404198e-03  2.3960450376832109e-05 9.4668632071060773e-06 -2.7979130626050895e-03  -2.9164547101607748e-05 -3.4023292650708669e-05 -3.3203448103833557e-03  5.8210018851315321e-06 -6.5327796839917595e-08 -4.4012936175270483e-03  -6.3392919560628190e-06 -3.3088962970321150e-06 -4.4366939853383060e-03  -8.6190191298394582e-06 1.0498750885418426e-05 -2.8355484583258575e-03  7.7729313133306344e-06 -3.4188375689118243e-06 -4.4659750158091557e-03  2.0658817557285965e-06 -7.8059818039550513e-06 -4.1929552002327236e-03  -1.9620042335657558e-06 8.2354765494581895e-06 -4.2104343698990245e-03  -1.2086281230998173e-06 -7.6823593488920346e-07 -4.6361647922876165e-03  -7.5476567550404235e-06 -5.1327073779502509e-07 -4.6903610999302452e-03  -2.1159315107756400e-06 -7.2227936481897383e-06 5.9844677723058304e-07  -7.5404885961617200e-07 -9.5763104126360821e-06 1.2919378860344537e-07  3.4378709459164665e-06 2.3964006510518126e-06 1.6628271143499346e-06  4.1303844038216386e-06 -1.5305127283660547e-05 -3.1632236227942239e-03  6.3683971658867280e-06 -3.6565410711904071e-06 1.2303253445904257e-06  3.8484484316929851e-06 -7.3549185696876955e-06 -1.5928569017714385e-06  1.3344478577131615e-06 6.4870296218769439e-06 -1.3344434127008414e-08  -5.7098975214434810e-06 -2.0945807607276999e-06 -1.5777219303175208e-06  -9.9828707710810582e-06 4.7892830172940540e-06 -4.5447913424364684e-03  -2.3397862736581502e-05 1.7554991994374649e-06 -4.9214920535371395e-03  -4.3387464686398765e-05 -4.9462966430953326e-05 -2.8129838157469815e-03  -9.8191939634572131e-05 -3.4033082808564751e-05 -3.9084796963272817e-03  1.8409819994179844e-06 -5.6531718157887286e-06 -4.3117549797025241e-03  -5.2758022117039691e-06 9.1376812661218806e-06 -4.0586540177432375e-03  -1.8630298181200362e-06 -1.1826014882614103e-05 -4.3359545567462137e-03  1.5139192657439499e-07 -1.5469141204118072e-06 1.1676643404930563e-06  1.9224320746469478e-06 5.8049835987712747e-06 1.8029707928594190e-06  4.0358771819209600e-05 -6.3676701668849086e-05 -3.0494824151714598e-03  -1.3859925777651460e-05 -6.3870038567648610e-06 -2.4937474663515959e-03  -8.5533549320743531e-06 -1.2596699088265929e-05 -3.8568308072157915e-03  -2.2944015960944550e-06 1.1874111708376546e-05 -4.3569308182282848e-03  5.7909239698485647e-07 7.2531633420072621e-06 3.1772241580933401e-06  1.1849775385346236e-06 -2.1904016025895234e-06 6.6911987787926369e-07  -1.5127827555122787e-06 -3.9627520613631324e-06 -3.0276011522514653e-07  9.5291477065118891e-06 -2.4114605504376327e-06 -4.5423815836761854e-03  3.2775596249198094e-06 -6.4502617982552928e-06 -4.5059856278779897e-03  7.4120906824452035e-06 3.2392386770649067e-06 -4.3214195866475647e-03  3.3106371227768006e-05 1.5234495199586127e-05 -3.9749330731832094e-03  1.0069777147450399e-08 -8.7217012728013815e-06 -3.7793194705022285e-03  1.4835222029571876e-06 -1.5130660259127676e-06 -4.4847237339488118e-03  1.4153825968368478e-06 -4.7508709070524704e-06 -4.6299380946640432e-03  -6.4541607475485089e-06 -1.0521744064519321e-05 -4.1011424900008189e-03  -2.1012208792378087e-06 -5.4983484254746690e-06 -4.4297098708966417e-03  1.0073117902527994e-06 -3.3266610442834284e-07 -4.6434264970546093e-03  1.6077234264010431e-05 -5.3492151039330693e-06 -4.1163133873924019e-03  6.5847427783279853e-06 4.3146453913527949e-09 8.0447120061886219e-07  -6.0114942794989414e-06 -2.2111678741280102e-06 7.9078639069799018e-07  2.0269139069052794e-05 -3.5252695489706557e-05 -2.9849996797634954e-03  -2.1076181989833013e-05 -1.1489190659268090e-05 -3.0140787599776887e-03  1.3583149144614744e-06 4.8581578334819706e-05 -4.2760974260554648e-03  4.2259995101344224e-06 2.9123240079961281e-05 -3.9760400154398067e-03  8.8167669971847722e-06 2.4472953353939655e-05 -4.5637868744146564e-03  -8.0187939855998136e-06 6.1406258546995307e-06 1.3890257797555758e-07  7.4863922370443597e-06 7.6598507458421082e-07 1.0940824166617333e-06  5.7681618498325412e-06 -1.7276513091943355e-05 -4.5757594227813954e-03  1.0381907909899203e-05 2.1986049675055579e-06 -3.4191910468926254e-03  -6.9877548840996099e-06 -1.3107970434748442e-05 -2.9809394186420370e-03  -7.8476217424221031e-06 1.7313194292180548e-05 -3.9656157075893660e-03  3.0412285338314902e-06 2.8408935610067471e-06 -4.6617746180974782e-03  1.0946119335964976e-06 7.1985888784092597e-07 -4.8339996245416997e-06  1.3603541085465735e-07 1.3668670912216555e-06 -3.0286042008089466e-06  -4.8556684901114386e-07 -1.1153646916536876e-07 7.5135828318664254e-07  1.2846929604479147e-05 -7.9626115457101029e-06 -3.5962029429588696e-03  4.9281597440929671e-06 2.5486118015935274e-06 -4.6391354454526999e-03  2.4375501920291061e-06 3.5500913502903052e-06 -4.6621964699729620e-03  -1.5679958305294059e-06 3.4246450975352528e-07 -4.1008411203493486e-03  1.0436077821969914e-05 1.7629270573728795e-06 -4.5780508156473866e-03  -1.1563937463232907e-06 -4.5881835768957637e-06 -4.6257901238918398e-03  -6.1810214028587742e-07 -7.3917847696683674e-08 -4.5011028029131490e-03  -1.5375640397226068e-06 4.3068337284665122e-06 2.4929164885641895e-07  1.0869294384042306e-07 -3.2297349677617474e-06 1.0402143829043560e-07  2.0310339339391519e-06 -8.2785529973696209e-06 -3.1303465250568352e-03  2.5798920380475137e-06 3.6208648914891861e-07 -3.3071404211659147e-03  1.9376614656745205e-05 -3.7149432358100270e-06 -4.5301670588808775e-03  8.4587063162332039e-06 -3.5329908434529414e-06 -4.4467843448095243e-03  -1.2456911307548498e-05 -2.7704367674962836e-06 -4.6109753895548561e-03  2.7240341238799135e-07 -9.7264834177724922e-07 -4.2199244272937394e-03  -1.4072978402795909e-05 1.7451680795012842e-05 -4.0291090208662769e-03  -2.2455405739774031e-05 2.3729448355971134e-05 -4.2472806262887335e-03  -6.5773418235095179e-05 6.3568458802883094e-05 -4.2774414133843674e-03  1.2125919197750067e-05 2.6036859436242134e-06 -4.6516090211769874e-03  2.6743994651977519e-05 1.4260851738879810e-05 -4.6588174352192400e-03  2.1744808039370414e-05 4.3338248941295035e-06 -4.3002016904793283e-03  2.2124475591180322e-08 -5.3521488133373443e-07 -4.6617285184619309e-03  2.2154935241478261e-05 -8.1375629989849482e-06 -4.4999316006070047e-03  7.3800199032685759e-06 -1.1132822267814828e-05 -4.6099803960922220e-03  2.9318439453554155e-06 -5.8176667053196474e-06 -4.6577810698436844e-03  7.8612141984657185e-06 4.2076302535014593e-06 -4.3790548772848015e-03  -9.6872403151797743e-06 2.0749844754908727e-06 -4.2586210023926232e-03  1.1515463984127766e-05 -1.7013887951656703e-05 -2.6407966278295838e-03  -3.8739426306224762e-06 -1.1891153991077792e-05 -4.0806399878015771e-03  -1.3139774664544367e-05 -1.3751413251471387e-05 -4.5229563151173409e-03  -1.0283835815496900e-05 -5.1976002879688878e-06 -3.9796770554562160e-03  7.6885208306608158e-07 2.5603606770845623e-05 -3.6112533124024507e-03  -1.7712372947945898e-05 -3.1831762801437832e-06 -3.9523244034580960e-03  -1.6567798855184134e-05 -1.1563849344554841e-05 -4.1719100234926896e-03  -7.5996627280863971e-06 7.1763827917595043e-06 -3.4048298107132104e-03  7.2049776697875274e-05 2.6479395821750053e-05 -3.0779688877836356e-03  -1.2251622287654935e-05 1.0323172288886109e-05 -2.8200843150428777e-03  1.1839163599058723e-05 -2.5351450957877718e-05 -3.4545476248337616e-03  4.0979334591915530e-05 -1.0155589738975075e-05 -4.3290955153822653e-03  -1.7972098811345127e-04 -2.7647550069460031e-05 -4.1613842261754557e-03  -9.9272783232825135e-05 -5.9360882388172974e-05 -3.8582472091621381e-03  -7.6479239009985851e-07 -6.5726439881550234e-06 -2.7298493216017849e-08  -1.0415639563421431e-06 -7.1238218574940966e-06 -1.1398308026632412e-06  6.0052595878791708e-07 7.1428774631151388e-06 1.0922027222317415e-06  -1.4440929887560076e-05 -1.2224882580690379e-05 -3.3255284624716381e-03  2.8407020687749563e-05 -4.4773992707021145e-05 -4.3142730109313960e-03  -1.2761489116720101e-05 -1.5419194716686195e-04 -3.8004452425455257e-03  -3.7045102847937200e-05 -8.4335061980401725e-05 -3.6896135214617830e-03  -1.9469793890036724e-05 -2.8611697491589916e-06 -3.1973831475536310e-03  3.0518887961483837e-05 2.1425269368965097e-05 -4.5228395333186669e-03  6.6917218718041775e-05 6.1476676836469337e-05 -4.3097897970134410e-03  2.2668381059463055e-04 -2.9020619435355822e-06 -3.0952204487389719e-03  -3.9394173402283793e-06 6.0899387051536848e-06 -3.4630835425549242e-03  2.3414069594501388e-06 4.0069334601207263e-06 -5.4232531624195189e-06  -9.4762564805964182e-07 4.0835034583394429e-06 -4.5519821715432332e-06  5.2458444821551782e-06 6.7551233520566793e-05 -3.7584296700343941e-03  -4.9536469145982272e-06 8.1516215061816198e-06 -1.9202433466278