<?xml version="1.0"?>
<VTKFile type="UnstructuredGrid"  version="0.1"  >
<UnstructuredGrid>
<Piece  NumberOfPoints="857" NumberOfCells="3763">
<Points>
<DataArray  type="Float64"  NumberOfComponents="3"  format="ascii">-0.0182597916573 0.126128911972 -0.119588643312  -0.0077641364187 0.0512270443141 -0.07050477713349999  -0.0237180162221 0.16240182519 -0.053058128804  -0.107877351344 0.105669431388 -0.0502408407629  -0.0444478429854 0.116080775857 -0.00235075876117  0.0393674038351 0.112876079977 -0.0491501875222  0.0248903874308 0.0489483103156 0.000152088920004  0.0314915925264 0.114928804338 0.0218031276017  -0.0657326281071 0.0685198307037 0.0497140102088  -0.0355357266963 0.164656624198 0.0508319064975  -0.010538729839 -0.0422629192472 -0.208358153701  -0.0239527057856 0.0135364839807 -0.242119863629  -0.0194642152637 -0.0775559768081 -0.263431429863  -0.08492307364939999 -0.0108216870576 -0.280446648598  -0.08293507993220001 -0.0361198186874 -0.159778758883  -0.0240796487778 -0.0824203491211 -0.148982465267  0.0430508553982 -0.121076337993 -0.234084427357  0.0307756774127 0.0324950888753 -0.198437720537  0.00352357281372 -0.00433266581967 -0.144715368748  -0.0456651262939 0.08372022956609999 0.342343091965  -0.116630032659 0.0117083769292 0.386158525944  -0.08223126828669999 0.0577075146139 0.289406776428  -0.0511222109199 0.00205342215486 0.300772219896  -0.0125984866172 0.0267426930368 0.351842552423  0.0303636882454 0.0561947338283 0.391145974398  -0.0524924062192 0.0543583929539 0.40361738205  -0.07944945245979999 0.130002260208 0.441037595272  -0.000730989675503 0.119443200529 0.385622620583  -0.078488714993 0.137875169516 0.332541137934  0.0142801422626 0.110509291291 0.27100610733  0.0224165506661 0.08303219079970001 0.331783413887  -0.0170432701707 0.161798536777 0.30022162199  0.000811119796708 -0.0515509881079 -0.08419398218390001  0.0888616070151 -0.015075173229 -0.0776951387525  -0.0989535748959 -0.0518730916083 -0.08125374466180001  -0.0433920919895 -0.09785594791170001 0.0106235472485  -0.0488061010838 0.0295096840709 -0.0131453983486  -0.25 0.25 0.5  -0.166666666667 0.25 0.5  -0.25 0.195066730511 0.445658150344  -0.19506166517 0.25 0.445542865294  -0.0213422998786 -0.126349791884 -0.045622177422  -0.117952652276 0.0158270020038 -0.16616243124  -0.0531469397247 0.0490713231266 -0.13630309701  0.0358348339796 -0.131537660956 -0.134171053767  0.0583617314696 -0.115307979286 -0.0462360456586  0.010585160926 -0.0606908276677 0.314250290394  0.078067921102 -0.133790805936 0.331458956003  0.0206208750606 -0.104583717883 0.36723652482  0.0300164371729 -0.13569638133 0.270959883928  0.0797956883907 -0.07311873137949999 0.388136893511  0.0291880238801 -0.0850581228733 0.220644980669  0.0788302049041 -0.07555303722620001 0.284453928471  -0.0465739220381 -0.108428947628 0.305151432753  -0.056692365557 -0.0812899768353 0.234353885055  0.10282895714 0.0630551427603 -0.0452189296484  0.178613707423 0.153893724084 -0.0703043565154  0.0750898644328 0.130835875869 -0.116260357201  0.0179002508521 -0.0400723591447 0.396018892527  0.07961820065980001 -0.020668130368 0.232235535979  -0.00726175494492 -0.022667773068 0.242156982422  0.0524490773678 0.0171752162278 0.310696065426  0.0103002395481 0.0813155695796 0.107229083776  0.00225681974553 -0.008687185123560001 0.0457225777209  0.177950121638 0.25 0.0405701099774  0.151375159621 0.202163234353 -0.00268407491967  0.13042794168 0.172564610839 0.0599601529539  0.184557154775 0.16295710206 -0.00737970136106  0.0827306732535 0.011830884032 0.0299163535237  0.106673434377 0.0676268041134 0.0663062110543  0.25 0.25 0  0.25 0.177947182503 0.0435581305687  0.0251978598535 -0.0201241951436 -0.0233656335622  -0.25 -0.25 0.25  -0.175495340629 -0.25 0.295351832328  -0.25 -0.175776260788 0.294629825204  -0.164853364229 -0.189889326692 0.246240898967  0.111295968676 0.25 -0.00354384794953  0.0417815256417 0.25 0.0264120515999  0.0577150444892 0.25 -0.0418173710713  0.035034801811 0.196921139956 -0.0497792549431  -0.115254960954 0.0352221727371 -0.0357825122774  0.0360979661345 0.0743419006467 -0.130612716079  0.08110298216340001 0.0143552683294 -0.135737240314  0.0281950440258 0.110801942647 -0.38559025526  -0.000352636008756 0.154027625918 -0.45018479228  0.0220217909664 0.07910815626379999 -0.445265561342  -0.041934799403 0.09297795593740001 -0.440330862999  -0.115356497467 0.128115877509 0.0303980205208  -0.08144567906859999 0.192924261093 -0.0396481454372  -0.0503155887127 -0.140062868595 0.370642662048  0.0181560348719 -0.191118896008 0.319997102022  -0.09442232549189999 -0.0766885429621 0.347179293633  -0.10306725651 -0.0245223585516 0.261891931295  -0.0371639840305 -0.192689821124 0.258922994137  -0.08778057992460001 -0.193450272083 0.293951839209  -0.116932563484 -0.137108251452 0.278956532478  -0.0434515699744 -0.19969072938 0.340430229902  -0.016621209681 -0.143479332328 0.208528921008  -0.0799133181572 -0.177766740322 0.206858798862  -0.0340202823281 -0.07231882214550001 0.405357718468  -0.153045728803 -0.0703692808747 0.28540495038  -0.0647673308849 -0.069349065423 -0.297796696424  -0.0468406006694 -0.118580199778 -0.331259429455  -0.0636249184608 -0.122360698879 -0.235275790095  -0.137311711907 -0.115820750594 -0.279358655214  -0.25 -0.25 0.333333333333  -0.00222280388698 -0.0275516584516 -0.327156513929  0.0233143884689 -0.124395690858 -0.330935031176  -0.00544846989214 -0.0444226972759 -0.392852008343  -0.07202984392639999 -0.0450558848679 -0.379192590714  -0.128861442208 -0.0482712239027 -0.325591087341  -0.0319190612757 0.25 0.27473160228  0.0259018652141 0.196524605155 0.343851953745  -0.0424101948738 0.196461260319 0.324036180973  -0.08801463991400001 0.193724930286 0.280150324106  -0.051391992718 0.129726842046 0.244459152222  0.0793330296874 0.131078347564 0.273738384247  0.0304427426308 0.197590425611 0.258007407188  0.139736711979 -0.103549621999 0.308288753033  0.117407329381 -0.00031748006586 0.284001767635  0.17845864594 0.0137020656839 0.2717012465  0.133446916938 -0.07468281686309999 0.252671837807  0.193237304688 0.0103836003691 0.32706490159  0.108656100929 -0.016409387812 0.370573759079  0.195593327284 -0.0705924406648 0.374003827572  0.204297035933 -0.0882691517472 0.283604085445  0.15987212956 -0.0232784096152 0.211559042335  0.103109702468 -0.0715631917119 0.185957938433  0.25 -0.177950121638 0.0405701099774  0.25 -0.111295968676 -0.00354384794953  0.168315500021 -0.181550845504 -0.0129796266556  0.203061833978 -0.0839376300573 0.0201103240252  -0.123973377049 0.0421161539853 0.0831994190812  0.10652089864 0.041568480432 0.133020982146  -0.00508088478819 0.00464248098433 0.118765294552  0.0384838804603 0.0542355030775 0.219570666552  0.0556482039392 0.09942726045850001 0.165778696537  0.25 -0.25 0  0.25 -0.17904445884 -0.0421267671166  0.0085972994566 0.139411628246 0.206887423992  -0.0427397117019 0.0734880268574 0.199836358428  0.25 -0.25 0.166666666667  0.177338154858 -0.25 0.209433902167  0.178222204231 -0.25 0.126578397361  0.180748909712 -0.154124230146 0.180074676871  0.118582360446 0.0498475395143 0.233844980597  0.113276541233 0.115120351315 0.208414897323  0.068451166153 0.123325429857 0.09300038218499999  0.08695217221980001 0.18308262527 0.11987875402  0.1366494596 0.0978636816144 0.125807240605  0.0170362386853 0.165571182966 0.116205818951  -0.075325883925 -0.13042730093 -0.120773427188  -0.191016584635 -0.1764793396 -0.0778442546725  -0.102759346366 -0.20253264904 -0.07015967369080001  -0.126150563359 -0.115044787526 -0.0573479756713  -0.138729035854 -0.104583211243 -0.134180948138  -0.147993162274 -0.138949289918 -0.203295826912  -0.180331096053 -0.192031860352 -0.160557568073  -0.194399222732 -0.0846866071224 -0.148938387632  -0.11259970814 -0.078034222126 -0.193649172783  0.0326924659312 -0.122268341482 0.0296003930271  0.0215157996863 -0.180560961366 -0.0757267251611  0.0956164896488 -0.0493310950696 -0.0164182558656  0.112129375339 -0.112067811191 -0.105549775064  0.127802968025 -0.106147237122 -0.0110959038138  -0.0854129120708 -0.015297700651 0.056893799454  -0.0204317308962 -0.0795602425933 0.117458000779  -0.178222204231 0.25 0.126578397361  -0.177947182503 0.25 0.0435581305687  -0.107976816083 0.25 0.0905854563709  -0.157577678561 0.178241759539 0.0969507619739  0.25 -0.25 0.333333333333  0.25 -0.25 0.25  0.175776260788 -0.25 0.294629825204  0.25 -0.175495340629 0.295351832328  0.0932372882962 -0.0430554822087 0.0724518448114  -0.044769000262 -0.00661279587075 0.403999477625  -0.194478780031 -0.0247275307775 0.332954645157  -0.173761367798 -0.0806607827544 0.396263659  -0.137637495995 0.00523930834606 0.315887242556  0.0864742994308 -0.139340251684 0.176064118743  0.105438224971 -0.136641919613 0.253711819649  0.0308670303835 -0.25 -0.136809572586  0.0367561832589 -0.25 -0.219583441074  0.0925811678171 -0.20055809617 -0.19996842742  0.0127155454829 -0.193433105946 -0.225977659225  0.0415658205748 -0.200880005956 0.196522325277  0.0373581312597 -0.119548290968 0.120048768818  -0.0954102815882 -0.25 0.346414074494  -0.101368582479 -0.25 0.251933327382  -0.0374909392175 -0.25 0.286229296012  0.0852289572358 0.109103307128 -0.27055695653  0.07707493752239999 0.127253636718 -0.199824258685  0.128097131848 0.07648140937090001 -0.209757223725  0.154867321253 0.13628205657 -0.212952241302  0.08678253740069999 0.189277544618 -0.274375885725  0.127699971199 0.0803090333939 -0.326344817877  0.0577741526067 0.0601542405784 -0.31936660409  0.0525139421225 0.129102528095 -0.326874881983  0.0251371748745 0.175572559237 -0.261228203773  0.0199144631624 0.0927290171385 -0.265960127115  -0.148952946067 -0.121583275497 -0.374568909407  -0.25 0.177950121638 0.0405701099774  -0.25 0.111295968676 -0.00354384794953  -0.175531774759 0.135734900832 0.0562076568604  -0.178730383515 0.191659659147 -0.00562386959791  -0.0244714934379 -0.108516678214 -0.387223660946  -0.09279609471560001 -0.170035287738 -0.445968538523  -0.0281062982976 -0.0
[...]
<PointData  Vectors="f_104"> 
<DataArray  type="Float64"  Name="f_104"  NumberOfComponents="3" format="ascii">6.9220111155490212e-05 1.6589628245748916e-03 1.4376877956080228e-01  1.2379095271351757e-03 9.2681784473117078e-04 1.7119194979229993e-01  -2.1678037289119096e-04 1.3206881358700853e-03 1.1806503527933573e-01  1.6436447326092344e-04 -8.7269217606634108e-04 1.3972715862369969e-01  -2.2552720979305495e-03 2.1379270634794912e-05 1.5124584462962262e-01  -1.9934603338903258e-03 -3.0840483581277877e-03 1.5311570272230560e-01  1.0632712486728603e-03 -6.5761781664251423e-04 1.7159429883030347e-01  -1.5960696372259811e-03 -4.4172395724207536e-04 1.5047744226714230e-01  -1.6359058889417642e-03 -2.1810513581488260e-04 1.6430699868685761e-01  1.2118336272007450e-04 2.5251473778847406e-03 1.1903059846082092e-01  -2.0132588355790443e-03 8.7861314530851225e-05 1.7134369177180847e-01  4.3325327032042501e-05 2.6705563414045752e-04 1.7247047729902151e-01  2.4629342542671574e-04 5.3751615660333765e-04 1.6083932162237591e-01  1.7277391552116822e-04 2.8243621331988314e-06 1.5629488319261062e-01  9.2968950058402338e-04 1.5953465481458643e-03 1.6011334947133035e-01  -4.6857186833344940e-04 -1.1351030647961688e-03 1.6334936269604125e-01  -1.6721289305694786e-04 7.9866574372054939e-04 1.3700560747736079e-01  2.6877808096474078e-04 -1.7952418637277293e-03 1.7182019626937090e-01  -5.3175512031580243e-04 -8.0750304408589639e-04 1.7699698932835856e-01  -7.1301100306233513e-03 9.5592991684258291e-03 1.5250524694375725e-01  -1.7505869125731009e-02 1.4950738583647846e-03 1.4508651300496003e-01  -5.7912207365751166e-03 2.5151137356712780e-03 1.6168369097540922e-01  -8.8106304167431121e-03 -1.5817150841277380e-03 1.7052572851878414e-01  -6.4846838339446804e-03 2.1626239836797065e-03 1.6051496712490682e-01  4.8488157147173073e-03 8.6265176398868069e-03 1.4437183289567904e-01  -8.9213351934236077e-03 7.9540332775933382e-03 1.4265477736170259e-01  -1.4320490026280761e-02 2.5804652287093510e-02 1.2813456596624354e-01  -1.2583789749878670e-03 1.4876315002837119e-02 1.3628359395473261e-01  -3.5892413769459805e-03 6.4005959955049036e-03 1.2626242452102301e-01  2.6420960138355092e-03 5.0636226302829121e-03 1.4503021857992487e-01  -7.5205117301016978e-04 6.5161456182926880e-03 1.5320575140785350e-01  -1.3159173506817603e-03 3.5486671601462280e-03 1.2187268058747153e-01  -1.0483721770830961e-03 -5.4308223407863068e-04 1.7168755427251933e-01  -5.8379320799186360e-05 1.6261321197207873e-03 1.5846777599050743e-01  9.1983078658611895e-05 -1.6631867333168917e-04 1.5093495614270358e-01  3.2848564104122875e-03 -2.2854885636826396e-03 1.5910691045766820e-01  -2.2134579236950634e-03 3.5050337287411623e-03 1.7285221926515856e-01  -9.8844194421524399e-03 1.2744283739719829e-02 1.3638787993560905e-01  -8.8967799231934788e-03 9.0195197038703268e-03 1.3032937598233613e-01  -1.0294002542345165e-02 1.6045109207126665e-02 3.3709233768375806e-02  -7.8392154768440140e-03 1.2227866979592822e-02 3.3824331320453843e-02  2.6678419607923517e-03 -1.2800110986686726e-03 1.4815710688977349e-01  1.5053306631545990e-03 -1.9573843822477208e-03 1.4161183424690080e-01  -1.6249509931889918e-03 -9.2127740181277280e-04 1.6862431515297968e-01  -4.9002321608206535e-04 -1.2352882437252888e-03 1.3766994092861010e-01  -6.4853432104200169e-05 -4.4234659750492710e-03 1.5292218582982894e-01  4.5639606278535787e-03 -1.1548206433759272e-02 1.6163413336738910e-01  8.3076525949869161e-03 -8.0958605396478350e-03 1.2261182086485575e-01  -5.6564766540001163e-04 -1.5155794296207465e-02 1.4058517927814931e-01  2.9234610863490005e-03 -1.0577408886665520e-02 1.4507525549102479e-01  1.7880502381983694e-02 -1.2813965799050295e-02 1.3415042837933214e-01  1.4601806730465397e-03 -6.1283926346611759e-03 1.7222598160723482e-01  8.7282838945517589e-03 -9.5920956807820125e-03 1.5388786818784905e-01  -2.1223856396539002e-03 -1.0286010078829191e-02 1.5498777009681070e-01  -2.8107813871376246e-04 -6.6801929039785081e-03 1.6361320609454175e-01  4.9318724962598521e-04 -1.2841869636098751e-03 1.4626607306780579e-01  1.8308974415319858e-03 5.1644595757167433e-04 8.3062638574161421e-02  -1.9922607183414363e-03 -2.2607038451678161e-03 1.3218172054216162e-01  1.3897275978080961e-03 -1.2339188738574659e-02 1.5200648564627492e-01  5.8905091204006542e-03 -6.4249965511268201e-03 1.7323727787266288e-01  -7.3019026996401590e-04 -8.3055519123646105e-03 1.9686236333856871e-01  7.6549027356421660e-03 -2.6363435558021463e-03 1.7148475675886499e-01  -8.6535215483130685e-05 -3.3345430167023155e-03 1.7266102138852371e-01  1.3262218630911331e-03 4.8747718298463016e-04 1.8008909489550584e-01  -1.1009632211559516e-03 6.1337214335820155e-04 2.4945925105528791e-02  4.2057590253191642e-03 2.9829971773045194e-03 6.2947486981463949e-02  -1.3813837381688250e-03 2.1936721874593664e-03 9.0057650932862443e-02  -1.0812203946481309e-03 1.2907714844025845e-03 6.7481411763809535e-02  8.4054352606567368e-04 -2.3795862267607603e-03 1.6282803040391172e-01  -3.0521830192239779e-04 -4.9905779056590447e-03 1.5626560904693734e-01  -1.0095916205629632e-03 6.0486134737340472e-04 2.5503366838666972e-02  -1.1966490595630779e-03 8.7869135106491045e-04 2.4861798564331447e-02  -5.5719545733574518e-06 -2.3557301855646564e-03 1.6956722242408623e-01  -1.9329993229188186e-03 1.9002639520655765e-03 2.3487334992061668e-02  -3.8464050292631178e-03 1.8027857189202262e-03 2.5061597062089710e-02  -2.1667169768721699e-03 3.6126712241511935e-04 2.5120036006782386e-02  -1.9410816806189159e-03 -3.5275372187174333e-03 7.4614555725483797e-02  -6.5235988954801308e-04 3.5653105496424295e-04 2.6094086125545139e-02  -4.3347350068630348e-04 4.5169329425945147e-04 2.5442682680219798e-02  -4.6382315843131232e-04 3.8686316962985523e-04 2.6685777333026944e-02  -5.0716403367914208e-03 6.4001427104740170e-04 7.9863955052427910e-02  -6.4739801495788512e-05 8.5433144455985673e-05 1.4401780813203946e-01  -4.0190789911063042e-04 -1.1810501584231959e-03 1.6554494117286164e-01  -2.2602152536869025e-03 -2.8832925821764945e-04 1.5876019669182850e-01  -4.4718315464571093e-05 -1.0844659570485788e-03 1.4612893864383567e-01  2.2965708296118385e-04 -1.7157405328617082e-03 1.2325033242419176e-01  4.5324154337813993e-06 -2.5716400023372242e-03 1.6161059660507640e-01  4.8410274485074259e-04 -2.0653239879032106e-03 1.5289187766217885e-01  -7.9340085578402826e-04 -1.4522694252700754e-05 1.2362399941423459e-01  1.5591055638381865e-03 2.8881393288807660e-03 8.6044302694714955e-02  -3.4601262731972057e-03 -1.1947672724731753e-02 1.3983605906692503e-01  2.9466757368293013e-03 -1.0067306922238244e-02 9.8934429215851091e-02  -8.9349080142482780e-03 -1.2647989513588151e-02 1.4209418197268447e-01  -5.4826777459768413e-04 -5.5093028151527246e-03 1.5630971346040259e-01  -4.3623327192273765e-03 -2.0437369920339784e-03 9.0447859088673505e-02  -5.6081192617697040e-03 -4.5655798690996474e-03 9.8051378539954367e-02  -4.2539486687336670e-03 -1.0061129003122182e-02 1.1692111392253977e-01  -1.7644527910354017e-05 -1.0377658390609950e-02 8.7069510926250884e-02  -7.4312112126685725e-04 -2.7954923089904579e-03 1.4576143149631451e-01  1.1701352422476422e-03 -5.2623535598096656e-03 1.0530495695002470e-01  -7.8352784569609008e-03 -1.8881165212431720e-02 1.4195380827756307e-01  -6.0721837460245495e-03 -3.7643892360187318e-03 1.1794274913153015e-01  4.6989226642741238e-04 -4.0273368840923208e-04 1.5483316152880994e-01  3.7760673753663268e-04 -2.2476875890003678e-04 1.4016935455003152e-01  1.1829517522831818e-04 2.9270022782414075e-03 1.3433136797662207e-01  -4.7149570849448670e-05 4.8120803843266965e-04 1.1449014118104364e-01  -4.8410705235616535e-03 -1.3362337365229189e-03 2.6629005635306215e-02  3.3320870762486590e-05 9.2001169190121751e-04 1.7014951657026206e-01  4.4046008846184125e-04 -2.6542606622481832e-06 1.4119301526729483e-01  4.3355764839419315e-04 -1.4357483775661792e-03 1.6945704765787234e-01  5.1945654511841727e-04 3.4974406350144280e-04 1.5750688243492281e-01  4.3744327916269993e-04 -6.2658494438831550e-04 1.3548134603708345e-01  3.5327137211942696e-04 2.1174506937904542e-03 2.3083445249154753e-02  -7.6983301883485375e-04 1.5942342435841521e-02 8.9295560515738170e-02  -2.1075162428718782e-03 1.4238070512485044e-02 6.5257385517481059e-02  -3.3550031205175127e-03 6.9459888790513007e-03 8.4115152521699002e-02  1.3103151173579919e-03 4.6948521425784684e-03 1.3604539330598125e-01  2.6466340752175901e-03 1.0365633877791481e-02 1.2578469576041956e-01  -1.9253102010164675e-03 6.0080465878934773e-03 8.9710004848121680e-02  9.3933302379233669e-03 -1.2591376786150707e-02 1.2556750034756720e-01  6.6679399155873736e-03 2.5516538195177675e-03 1.4097482661835664e-01  4.7508522715937829e-03 -4.0770610410514256e-04 1.0811174300659752e-01  3.6852610737416261e-03 -5.2257487023490415e-03 1.3692585021681467e-01  1.2304683762217735e-02 1.5021404069370137e-03 9.0171575157767525e-02  1.3488124754307418e-02 -5.6845188182443494e-03 1.4400553624053339e-01  1.5473574779324026e-02 -1.2627313007171468e-02 9.9106540450567618e-02  7.3079782446474843e-03 -2.9335620968981737e-03 7.5447091875272709e-02  4.2668940267300611e-03 -3.9131781625851804e-03 1.2888316797198276e-01  -2.0955015133552796e-04 1.0257255175414736e-04 1.4751921382388533e-01  -1.2920558844075820e-03 2.8120037058435676e-03 2.2996593821594625e-02  -1.2505707215366422e-03 2.3707939592809324e-03 2.4193240928187615e-02  -2.1917578458877131e-03 1.4836605331315571e-03 6.5517315332834197e-02  3.0345890773389065e-04 4.8271067277333955e-03 7.3784662063382078e-02  -3.8748852649241939e-04 -6.8247013829093894e-04 1.4023392093768985e-01  1.8039601003301822e-03 8.1122212579843060e-04 1.4756794619896932e-01  2.1902641918113857e-03 -4.1643631618290275e-03 1.7463362462285956e-01  8.4131019189674194e-05 -1.2866488470902459e-04 1.7321201906044981e-01  6.3566238628121464e-04 3.8872017172373691e-04 1.6215150389315500e-01  -1.3691023339056114e-03 2.7163678843229243e-03 2.3835936007825964e-02  -9.2382138732417351e-04 2.3965294034729990e-03 2.4719874059839355e-02  -1.0589672415791660e-03 5.5028646595655963e-03 1.3895379497846716e-01  -2.3289408043566922e-03 2.2127908599980670e-04 1.6753656028711381e-01  -1.8159688395739894e-03 3.6462280286994257e-03 2.0951456348610120e-02  -1.5360212487635539e-03 3.8928141464707570e-03 2.0847005658579658e-02  -1.6929732838505240e-03 3.3457079661253410e-03 2.1142923617990524e-02  3.1883084684601183e-03 -1.4962617943921604e-03 8.1986604849196523e-02  1.5546841287620065e-03 5.8905118203915778e-05 1.3953514528604849e-01  2.3847525279510448e-03 2.3737776558558298e-03 1.3095343847315688e-01  2.5423328204667358e-03 -2.2000123011293284e-03 1.4791169535072957e-01  -2.6544784629160306e-03 1.6114074003778691e-03 9.2172391936364229e-02  9.7775382843347876e-04 -1.4466469381608079e-03 1.2899196006734598e-01  -1.2204041507072952e-03 -1.6347021158595390e-03 1.1647350237731192e-01  2.5087504031647322e-03 -4.1947168085236806e-04 1.3441304871409335e-01  -3.4990909040503145e-03 -6.7394375287676135e-04 7.0804027628960944e-02  2.8065349393406737e-03 -1.9354571519523563e-03 8.1424494623698718e-02  -1.6385507287191643e-03 3.6965045267348361e-03 1.1143188869033274e-01  7.3120538434420822e-04 7.7596552387962164e-04 1.1461536082777142e-01  1.7153754015300105e-03 1.8602472668942003e-03 9.7698994443242732e-02  -1.8080499707324065e-03 -1.6406036620206378e-03 6.4449821304803659e-02  6.7254492870565065e-04 2.5975640099465329e-03 8.5378167819453288e-02  5.6750019836761029e-04 -1.5947827165129834e-03 1.4378543397084903e-01  -2.3730746362542768e-04 -2.2741306008375720e-03 1.4799902362032133e-01  -5.6000203479782292e-04 1.4652428808041048e-03 1.0187714549402115e-01  -1.7442747397862601e-03 2.2812820672044312e-03 1.5591175779141070e-01  -1.0539902983989242e-03 -8.9984005937952707e-04 1.3041865614949916e-01  -6.5577016498694689e-05 1.6637096763032458e-03 1.2053048012314381e-01  -2.5340968516022229e-05 3.8149204874310750e-03 1.5710904964182343e-01  -1.5803076378073368e-04 -2.4830487727723056e-03 1.6772285108559853e-01  7.2936074812839753e-04 5.1332295908892826e-04 2.3559850008213951e-02  7.6916684789490538e-04 8.1246379655719095e-05 2.4856038667667845e-02  5.4445781116701055e-04 4.1155114829357736e-04 2.4130590550180488e-02  3.4749910433365855e-04 7.7545053835513847e-04 7.6304107338351218e-02  -2.9190501006953669e-04 4.3992628539529814e-03 2.5878604833058105e-02  -1.8172705542224726e-03 3.8327410803391461e-03 2.1382144045064222e-02  -3.8753223887424493e-04 4.4407915077538133e-03 2.2715776260769715e-02  -1.4972731475567688e-03 3.1411461732285756e-03 2.3491552914199777e-02  7.4346829923973483e-04 1.1320113517149860e-03 1.5698892516541582e-01  -1.2972456518414265e-02 -1.4814439957144788e-03 1.5458663079843671e-01  -1.2645606663917909e-02 -4.8361334800225506e-03 8.4841055516926986e-02  -1.7452729368990477e-02 -4.4348227650938031e-03 1.0979230635811488e-01  -7.9572739397916377e-03 1.7895654656079299e-03 1.3918873947970978e-01  2.9460740715336821e-03 -1.4412655072896454e-03 1.1829163252822367e-01  5.8860799850185249e-03 -6.6405251713937338e-03 1.3030669066064540e-01  -5.0703935372919549e-04 1.5513825576381442e-03 2.6941171210388196e-02  -3.7402940815055871e-04 1.3535343812825203e-03 2.7840191373918254e-02  -1.4034284152403481e-03 6.5459935221015130e-04 8.0942891262715325e-02  -1.2792596580172425e-03 1.7131881831867974e-03 8.5698361358315212e-02  3.0581144614842118e-03 -3.9520167742010124e-03 8.2252472741278268e-02  -2.7719339866526492e-03 -4.4190280047897627e-04 1.3941239712496883e-01  -5.3203506876671166e-03 1.2221083987876591e-03 2.3409132717618505e-02  -2.1704548179232170e-03 2.7112650044946555e-03 2.1616438066760710e-02  -2.4318345603744304e-03 3.2973826236608913e-03 2.0783831304186991e-02  -1.8779397031273935e-04 -8.5392581350607875e-04 1.3662333973657700e-01  5.5708123147822034e-05 -2.4465638962763651e-05 1.3181727144762340e-01  -6.7320902534986904e-05 4.8917226368545125e-04 1.3433120537767412e-01  -7.8512418214591521e-04 6.1394227171474177e-04 9.9937928137754720e-02  -5.1823179482211076e-04 4.8489347382114434e-04 9.1940498417961633e-02  -1.3830498884913724e-03 -1.8933490418165995e-04 1.2902431954176158e-01  -2.8672145528812776e-04 -6.8944565687319625e-04 1.6066078392842043e-01  -2.3256618148237489e-04 3.8195757724146496e-04 1.3416100418118773e-01  -3.8420943663573120e-04 3.5813040948104701e-04 1.0244685864100246e-01  -2.4693540126938105e-04 2.8977938666200603e-06 1.5683921886773444e-01  -7.9368527672307883e-05 5.5262786460478944e-04 1.0687675235936643e-01  9.1946616032623923e-04 1.7377926897512751e-04 2.4916615170738392e-02  6.5632176357206687e-04 3.8949563084520042e-04 2.5472341270300156e-02  3.1724064431220758e-04 2.7715514428047145e-03 8.3325125610324638e-02  -1.8251670894888360e-03 5.3048409795675841e-03 6.4050989240758929e-02  -3.5077682063209512e-04 -1.1004702108054203e-03 1.5017644637186617e-01  1.4076788707508700e-04 -6.5429179206740178e-04 1.0334859306398911e-01  2.8495333400896432e-04 -2.3160122563919911e-03 1.5886768468757034e-01  7.2920288499163496e-04 7.4014841971407091e-05 2.5584095578284352e-02  6.3685303697731731e-04 7.1246115500428112e-05 2.6399133878543059e-02  -1.3167231452047494e-03 -5.6434842209789982e-04 1.1636097635739005e-01  1.6374663490909020e-03 7.7234521406817716e-04 9.4303801693277775e-02  3.1242152636360549e-04 3.9433250613944378e-04 1.0450936371465105e-01  1.5239703344685895e-03 1.5221017281731449e-03 1.0158050492394610e-01  1.1868881213684820e-03 2.1869753651445655e-03 1.5607772457439975e-01  -5.5319210154472278e-05 2.2825372514961249e-04 2.9701001436582102e-02  -2.9861150728110393e-05 3.0728885054068147e-04 2.9599296836637038e-02  -6.8377054352265919e-05 6.6315567300756148e-04 2.8953085038419393e-02  1.6260938017800404e-04 -5.7028064842702013e-04 9.0386854515896856e-02  2.0880237641451082e-04 -3.1847042972287974e-04 1.6430502836809407e-01  7.0649683071971386e-04 -9.4529290679751753e-04 1.6755798835869168e-01  7.3128348127567228e-05 -2.3726773023949378e-03 1.3597572467388289e-01  -8.1517807229881793e-04 -4.0895795138297408e-04 1.4375760451284011e-01  -1.1776988381251578e-03 -5.8750126432429101e-04 1.5353572798948695e-01  -1.3651810031038590e-03 6.5238400902400203e-04 1.4491381612593007e-01  1.1878084784279633e-04 2.2251806935099012e-03 2.4005310032668953e-02  -4.4684579039302212e-05 1.9981356157220184e-03 2.4817603943233318e-02  -2.3220707469399290e-03 -1.8297885208608180e-04 6.3577698126897439e-02  1.2017891158284304e-03 -1.6020422245668169e-03 8.6132077960790060e-02  1.8407871250195079e-05 -7.1551288621860324e-04 1.3119758600248388e-01  8.7172112011288047e-04 -2.0497424265105255e-03 1.4035687838440597e-01  -5.7234220194838693e-04 1.5644159196550847e-03 1.6911436913983460e-01  2.0415911587287868e-03 7.5758628380504639e-04 1.4779951143877681e-01  -5.1773230064804613e-03 -3.0179243903494452e-04 1.3114118160011137e-01  -5.3488667610456517e-03 4.1332403663474739e-03 1.3465754350620029e-01  -1.5788578632967391e-02 1.1300179394538092e-02 1.4130377556049589e-01  -2.8385055599106425e-06 -7.5165999203448939e-04 1.6698604828720143e-01  6.2120045012195081e-04 -1.5937516966423526e-03 1.5555059714409206e-01  6.6462808348467827e-04 -1.1802880766865942e-03 1.4476620945382640e-01  -7.9201056329941775e-04 -1.1720240074036613e-03 1.6981176398502704e-01  4.7129268347210666e-04 -2.3324935004550695e-03 1.4961850986972627e-01  4.9514195531102239e-04 -6.0860049461910820e-04 1.5093220278054595e-01  4.7365774784098721e-04 -8.8200025656022887e-04 1.6636022985421897e-01  -5.8470202977756376e-05 1.3888707450600458e-04 1.4220848028515773e-01  -3.7429055316355548e-04 -8.0100772026074456e-04 1.4371240850609085e-01  1.2293282929584969e-03 -6.1096022134044133e-04 8.5242353009848407e-02  4.5472323889935877e-04 -1.6821463993825668e-03 1.1193584295860921e-01  7.1597753632877823e-05 -1.3374839031519293e-03 1.1599832128517525e-01  6.6061925234025599e-04 5.0205154501341710e-04 7.1616259604510402e-02  -1.4536657754315969e-04 -8.2877560790289688e-04 8.8400121393971132e-02  2.1606947302778163e-04 -1.7762809315453050e-03 1.1334396162526617e-01  -1.9045669648105819e-04 1.0548558022781926e-03 8.7277603710650048e-02  -9.9875081919955860e-05 -9.1144099953695441e-04 8.2087699001635941e-02  1.0417437143183559e-02 -5.4085430837641658e-03 7.9531083719625667e-02  9.5499505721107093e-03 -5.8514705274666035e-03 8.7747388221257841e-02  2.6441679026270089e-03 -3.0626170722796724e-03 6.6856558696044371e-02  1.3364633059085933e-02 -1.9067792679023254e-02 1.2732284424541254e-01  -2.0779013951296738e-02 -1.5305641374177502e-02 1.3490189871970007e-01  -1.4095692891707153e-02 -2.9705522921428956e-02 1.3133627060047440e-01  4.2125079578634575e-04 8.4174984330905121e-04 2.3626010846524811e-02  -9.7360225137919508e-04 1.4449390192118330e-03 2.3387222054331993e-02  2.8684744286335191e-04 5.7257202677050815e-04 2.3211899173257583e-02  -4.7493509891229973e-03 6.3960344166532996e-03 8.1868184280800699e-02  2.3044203271349729e-03 -1.9219158198728770e-02 1.2376192847086118e-01  2.3613062802169513e-03 -3.8869378780866826e-02 1.3512675928295856e-01  -3.0041384111616611e-03 -1.5824406417283353e-02 1.0646336300638071e-01  -1.2139067834129550e-02 -7.9440757632313341e-03 6.8500519057843628e-02  1.2083110305890377e-02 6.4730041869759192e-03 1.3212464640724983e-01  1.8420621379331308e-02 5.7879350688987549e-03 1.3436025231032431e-01  2.0847895989035175e-02 9.7594956203014768e-03 1.1634572668734361e-01  7.0064690581989105e-03 3.7359268230345933e-03 1.0804617767588005e-01  -1.6681169800834639e-05 2.1477938295955788e-04 2.9771886306235385e-02  -7.3488791213215061e-05 2.3012272027274312e-04 2.9685671175325216e-02  1.9163568690942114e-04 -1.2988910199683637e-03 1.0690297970533783e-01  6.9689204698864687e-04 1.6368629776014536e-03 2.4472384368049521e-02  -1.2337475060335765e-03 2.6308212878815860e-03 2.5272089308831985e-02  -1.5989685118067991e-03 4.5132666601310550e-03 6.7119082497076640e-02  6.0653839769495570e-05 5.4150358472970707e-04 1.6256569819093664e-01  6