<?xml version="1.0"?>
<VTKFile type="UnstructuredGrid"  version="0.1"  >
<UnstructuredGrid>
<Piece  NumberOfPoints="857" NumberOfCells="3763">
<Points>
<DataArray  type="Float64"  NumberOfComponents="3"  format="ascii">-0.0182597916573 0.126128911972 -0.119588643312  -0.0077641364187 0.0512270443141 -0.07050477713349999  -0.0237180162221 0.16240182519 -0.053058128804  -0.107877351344 0.105669431388 -0.0502408407629  -0.0444478429854 0.116080775857 -0.00235075876117  0.0393674038351 0.112876079977 -0.0491501875222  0.0248903874308 0.0489483103156 0.000152088920004  0.0314915925264 0.114928804338 0.0218031276017  -0.0657326281071 0.0685198307037 0.0497140102088  -0.0355357266963 0.164656624198 0.0508319064975  -0.010538729839 -0.0422629192472 -0.208358153701  -0.0239527057856 0.0135364839807 -0.242119863629  -0.0194642152637 -0.0775559768081 -0.263431429863  -0.08492307364939999 -0.0108216870576 -0.280446648598  -0.08293507993220001 -0.0361198186874 -0.159778758883  -0.0240796487778 -0.0824203491211 -0.148982465267  0.0430508553982 -0.121076337993 -0.234084427357  0.0307756774127 0.0324950888753 -0.198437720537  0.00352357281372 -0.00433266581967 -0.144715368748  -0.0456651262939 0.08372022956609999 0.342343091965  -0.116630032659 0.0117083769292 0.386158525944  -0.08223126828669999 0.0577075146139 0.289406776428  -0.0511222109199 0.00205342215486 0.300772219896  -0.0125984866172 0.0267426930368 0.351842552423  0.0303636882454 0.0561947338283 0.391145974398  -0.0524924062192 0.0543583929539 0.40361738205  -0.07944945245979999 0.130002260208 0.441037595272  -0.000730989675503 0.119443200529 0.385622620583  -0.078488714993 0.137875169516 0.332541137934  0.0142801422626 0.110509291291 0.27100610733  0.0224165506661 0.08303219079970001 0.331783413887  -0.0170432701707 0.161798536777 0.30022162199  0.000811119796708 -0.0515509881079 -0.08419398218390001  0.0888616070151 -0.015075173229 -0.0776951387525  -0.0989535748959 -0.0518730916083 -0.08125374466180001  -0.0433920919895 -0.09785594791170001 0.0106235472485  -0.0488061010838 0.0295096840709 -0.0131453983486  -0.25 0.25 0.5  -0.166666666667 0.25 0.5  -0.25 0.195066730511 0.445658150344  -0.19506166517 0.25 0.445542865294  -0.0213422998786 -0.126349791884 -0.045622177422  -0.117952652276 0.0158270020038 -0.16616243124  -0.0531469397247 0.0490713231266 -0.13630309701  0.0358348339796 -0.131537660956 -0.134171053767  0.0583617314696 -0.115307979286 -0.0462360456586  0.010585160926 -0.0606908276677 0.314250290394  0.078067921102 -0.133790805936 0.331458956003  0.0206208750606 -0.104583717883 0.36723652482  0.0300164371729 -0.13569638133 0.270959883928  0.0797956883907 -0.07311873137949999 0.388136893511  0.0291880238801 -0.0850581228733 0.220644980669  0.0788302049041 -0.07555303722620001 0.284453928471  -0.0465739220381 -0.108428947628 0.305151432753  -0.056692365557 -0.0812899768353 0.234353885055  0.10282895714 0.0630551427603 -0.0452189296484  0.178613707423 0.153893724084 -0.0703043565154  0.0750898644328 0.130835875869 -0.116260357201  0.0179002508521 -0.0400723591447 0.396018892527  0.07961820065980001 -0.020668130368 0.232235535979  -0.00726175494492 -0.022667773068 0.242156982422  0.0524490773678 0.0171752162278 0.310696065426  0.0103002395481 0.0813155695796 0.107229083776  0.00225681974553 -0.008687185123560001 0.0457225777209  0.177950121638 0.25 0.0405701099774  0.151375159621 0.202163234353 -0.00268407491967  0.13042794168 0.172564610839 0.0599601529539  0.184557154775 0.16295710206 -0.00737970136106  0.0827306732535 0.011830884032 0.0299163535237  0.106673434377 0.0676268041134 0.0663062110543  0.25 0.25 0  0.25 0.177947182503 0.0435581305687  0.0251978598535 -0.0201241951436 -0.0233656335622  -0.25 -0.25 0.25  -0.175495340629 -0.25 0.295351832328  -0.25 -0.175776260788 0.294629825204  -0.164853364229 -0.189889326692 0.246240898967  0.111295968676 0.25 -0.00354384794953  0.0417815256417 0.25 0.0264120515999  0.0577150444892 0.25 -0.0418173710713  0.035034801811 0.196921139956 -0.0497792549431  -0.115254960954 0.0352221727371 -0.0357825122774  0.0360979661345 0.0743419006467 -0.130612716079  0.08110298216340001 0.0143552683294 -0.135737240314  0.0281950440258 0.110801942647 -0.38559025526  -0.000352636008756 0.154027625918 -0.45018479228  0.0220217909664 0.07910815626379999 -0.445265561342  -0.041934799403 0.09297795593740001 -0.440330862999  -0.115356497467 0.128115877509 0.0303980205208  -0.08144567906859999 0.192924261093 -0.0396481454372  -0.0503155887127 -0.140062868595 0.370642662048  0.0181560348719 -0.191118896008 0.319997102022  -0.09442232549189999 -0.0766885429621 0.347179293633  -0.10306725651 -0.0245223585516 0.261891931295  -0.0371639840305 -0.192689821124 0.258922994137  -0.08778057992460001 -0.193450272083 0.293951839209  -0.116932563484 -0.137108251452 0.278956532478  -0.0434515699744 -0.19969072938 0.340430229902  -0.016621209681 -0.143479332328 0.208528921008  -0.0799133181572 -0.177766740322 0.206858798862  -0.0340202823281 -0.07231882214550001 0.405357718468  -0.153045728803 -0.0703692808747 0.28540495038  -0.0647673308849 -0.069349065423 -0.297796696424  -0.0468406006694 -0.118580199778 -0.331259429455  -0.0636249184608 -0.122360698879 -0.235275790095  -0.137311711907 -0.115820750594 -0.279358655214  -0.25 -0.25 0.333333333333  -0.00222280388698 -0.0275516584516 -0.327156513929  0.0233143884689 -0.124395690858 -0.330935031176  -0.00544846989214 -0.0444226972759 -0.392852008343  -0.07202984392639999 -0.0450558848679 -0.379192590714  -0.128861442208 -0.0482712239027 -0.325591087341  -0.0319190612757 0.25 0.27473160228  0.0259018652141 0.196524605155 0.343851953745  -0.0424101948738 0.196461260319 0.324036180973  -0.08801463991400001 0.193724930286 0.280150324106  -0.051391992718 0.129726842046 0.244459152222  0.0793330296874 0.131078347564 0.273738384247  0.0304427426308 0.197590425611 0.258007407188  0.139736711979 -0.103549621999 0.308288753033  0.117407329381 -0.00031748006586 0.284001767635  0.17845864594 0.0137020656839 0.2717012465  0.133446916938 -0.07468281686309999 0.252671837807  0.193237304688 0.0103836003691 0.32706490159  0.108656100929 -0.016409387812 0.370573759079  0.195593327284 -0.0705924406648 0.374003827572  0.204297035933 -0.0882691517472 0.283604085445  0.15987212956 -0.0232784096152 0.211559042335  0.103109702468 -0.0715631917119 0.185957938433  0.25 -0.177950121638 0.0405701099774  0.25 -0.111295968676 -0.00354384794953  0.168315500021 -0.181550845504 -0.0129796266556  0.203061833978 -0.0839376300573 0.0201103240252  -0.123973377049 0.0421161539853 0.0831994190812  0.10652089864 0.041568480432 0.133020982146  -0.00508088478819 0.00464248098433 0.118765294552  0.0384838804603 0.0542355030775 0.219570666552  0.0556482039392 0.09942726045850001 0.165778696537  0.25 -0.25 0  0.25 -0.17904445884 -0.0421267671166  0.0085972994566 0.139411628246 0.206887423992  -0.0427397117019 0.0734880268574 0.199836358428  0.25 -0.25 0.166666666667  0.177338154858 -0.25 0.209433902167  0.178222204231 -0.25 0.126578397361  0.180748909712 -0.154124230146 0.180074676871  0.118582360446 0.0498475395143 0.233844980597  0.113276541233 0.115120351315 0.208414897323  0.068451166153 0.123325429857 0.09300038218499999  0.08695217221980001 0.18308262527 0.11987875402  0.1366494596 0.0978636816144 0.125807240605  0.0170362386853 0.165571182966 0.116205818951  -0.075325883925 -0.13042730093 -0.120773427188  -0.191016584635 -0.1764793396 -0.0778442546725  -0.102759346366 -0.20253264904 -0.07015967369080001  -0.126150563359 -0.115044787526 -0.0573479756713  -0.138729035854 -0.104583211243 -0.134180948138  -0.147993162274 -0.138949289918 -0.203295826912  -0.180331096053 -0.192031860352 -0.160557568073  -0.194399222732 -0.0846866071224 -0.148938387632  -0.11259970814 -0.078034222126 -0.193649172783  0.0326924659312 -0.122268341482 0.0296003930271  0.0215157996863 -0.180560961366 -0.0757267251611  0.0956164896488 -0.0493310950696 -0.0164182558656  0.112129375339 -0.112067811191 -0.105549775064  0.127802968025 -0.106147237122 -0.0110959038138  -0.0854129120708 -0.015297700651 0.056893799454  -0.0204317308962 -0.0795602425933 0.117458000779  -0.178222204231 0.25 0.126578397361  -0.177947182503 0.25 0.0435581305687  -0.107976816083 0.25 0.0905854563709  -0.157577678561 0.178241759539 0.0969507619739  0.25 -0.25 0.333333333333  0.25 -0.25 0.25  0.175776260788 -0.25 0.294629825204  0.25 -0.175495340629 0.295351832328  0.0932372882962 -0.0430554822087 0.0724518448114  -0.044769000262 -0.00661279587075 0.403999477625  -0.194478780031 -0.0247275307775 0.332954645157  -0.173761367798 -0.0806607827544 0.396263659  -0.137637495995 0.00523930834606 0.315887242556  0.0864742994308 -0.139340251684 0.176064118743  0.105438224971 -0.136641919613 0.253711819649  0.0308670303835 -0.25 -0.136809572586  0.0367561832589 -0.25 -0.219583441074  0.0925811678171 -0.20055809617 -0.19996842742  0.0127155454829 -0.193433105946 -0.225977659225  0.0415658205748 -0.200880005956 0.196522325277  0.0373581312597 -0.119548290968 0.120048768818  -0.0954102815882 -0.25 0.346414074494  -0.101368582479 -0.25 0.251933327382  -0.0374909392175 -0.25 0.286229296012  0.0852289572358 0.109103307128 -0.27055695653  0.07707493752239999 0.127253636718 -0.199824258685  0.128097131848 0.07648140937090001 -0.209757223725  0.154867321253 0.13628205657 -0.212952241302  0.08678253740069999 0.189277544618 -0.274375885725  0.127699971199 0.0803090333939 -0.326344817877  0.0577741526067 0.0601542405784 -0.31936660409  0.0525139421225 0.129102528095 -0.326874881983  0.0251371748745 0.175572559237 -0.261228203773  0.0199144631624 0.0927290171385 -0.265960127115  -0.148952946067 -0.121583275497 -0.374568909407  -0.25 0.177950121638 0.0405701099774  -0.25 0.111295968676 -0.00354384794953  -0.175531774759 0.135734900832 0.0562076568604  -0.178730383515 0.191659659147 -0.00562386959791  -0.0244714934379 -0.108516678214 -0.387223660946  -0.09279609471560001 -0.170035287738 -0.445968538523  -0.0281062982976 -0.0
[...]
<PointData  Vectors="f_78"> 
<DataArray  type="Float64"  Name="f_78"  NumberOfComponents="3" format="ascii">8.9536509763317290e-06 -5.7187029284983059e-07 -4.6099034312139190e-03  -3.3411366563177696e-06 4.6528410852351664e-06 -4.5263357202039185e-03  -8.2495834613019137e-06 -1.4231432245965608e-05 -4.3302718497162532e-03  -1.8162412158693575e-05 5.9408952530763801e-06 -3.9963403457436491e-03  -1.2762527791740838e-05 -3.2738929035706053e-06 -4.6171908199505339e-03  2.5394514506504813e-06 2.4623857054756430e-05 -4.1392821122508919e-03  -4.2172571001347537e-06 8.2021677432827841e-06 -4.5799901056639619e-03  8.7452721722194885e-06 8.4940713165379822e-06 -4.2359794489444311e-03  -8.3303054037682757e-06 -8.1473407685310011e-06 -4.5576334870452671e-03  -1.5482812283579282e-05 3.0180809059671938e-05 -3.8015310533058323e-03  -2.6785830564879338e-06 7.9936325645042268e-06 -4.6309532523577937e-03  -1.7000755651393405e-06 1.3518269015583664e-06 -4.5886274259762669e-03  2.9538595171920950e-06 8.1937287821249979e-06 -4.5241112808594884e-03  -1.4270514607487169e-06 9.8175380670764402e-06 -4.5629586593239303e-03  1.3830291485219099e-05 1.3204038679561479e-05 -4.3336187361444813e-03  4.8490836396003112e-06 2.2512054416004937e-06 -4.4417012159267827e-03  1.1961724834897992e-05 -6.1050826870630504e-06 -4.1748789167008670e-03  2.7726982111849811e-06 4.2608027720583913e-06 -4.5585598366453088e-03  4.6610618383266870e-06 -1.9979167045533446e-06 -4.5552463218945863e-03  2.3675898042075155e-05 -2.4458930520776760e-05 -4.5697776442874911e-03  -1.1319862471651427e-04 6.8786954348733461e-06 -4.8912138173343722e-03  -1.7264692814839670e-05 3.3047254687281224e-05 -4.4577452347311268e-03  -2.3742626047903806e-05 1.0666510073419443e-05 -4.6169754868277679e-03  2.1341353770787561e-05 2.9246657527269537e-05 -4.6116543133304915e-03  4.7982422270698350e-05 3.0140099600982368e-05 -4.9092217780048863e-03  -1.0357266021998803e-05 9.6639738409008913e-05 -5.0304909213839460e-03  5.4051951090363429e-05 1.4749088380707317e-04 -4.1093885069413980e-03  3.1466690377194047e-06 1.0625421253532459e-04 -4.4943977364090689e-03  -6.9060668642265423e-05 8.1789704124618392e-05 -4.4916165612907634e-03  -2.0861730655023520e-05 3.6646513235159248e-05 -4.5604098907597044e-03  1.0048345926440690e-05 4.7025119757522974e-05 -4.3529799206266087e-03  -3.0510769635758347e-05 2.8221207532937927e-05 -4.3968992706619461e-03  -1.8671754771075869e-06 5.1771721864805056e-06 -4.5887918642025351e-03  -1.1570924427354456e-05 2.2217251172917641e-06 -4.4000589217325567e-03  -1.2295147298603592e-05 -2.8617259552439106e-06 -4.4326152500607655e-03  -5.0210131810257389e-06 3.2782491979741589e-06 -4.4696716276332966e-03  -3.0195583703512170e-06 1.0858678997658329e-05 -4.5159008104934386e-03  5.8264933936752615e-06 -5.0802605952707886e-06 2.1115612825919080e-05  4.0555218912278259e-06 -1.0469804181573755e-05 6.9660593891724068e-06  6.2169838031641700e-06 3.6545906026269239e-06 1.1455576646083320e-05  -9.5233849683303558e-07 3.5217980845883686e-07 8.3547565805801528e-06  -1.5033488991226654e-05 1.8214292353902184e-05 -4.1940458440814571e-03  1.4932129663698795e-05 1.6553907700950450e-05 -4.5113303353788289e-03  1.8980935529755160e-06 8.2199190557921165e-06 -4.6521194434615363e-03  -9.5551681368855544e-06 -5.1112365819581644e-06 -4.3740360062232819e-03  1.6892749294361903e-06 -8.0983098149708339e-06 -4.1773113008815171e-03  1.4984376194425801e-05 -8.6051290022512181e-06 -4.5880754639216464e-03  -1.8936942835682668e-05 -2.5282457313771361e-05 -4.3925421552930789e-03  -9.4398107557482790e-05 -5.4668718795977911e-05 -4.7735329678003499e-03  -7.2656443029257938e-06 -5.4299055062029776e-06 -4.2147981349215094e-03  9.1855601166699396e-05 -1.1325713195358059e-04 -4.4283520490734129e-03  2.4625980266039787e-06 -1.1003369620588069e-05 -4.5562470673676603e-03  4.3951602822601971e-06 3.4420508898677498e-06 -4.4418680400478035e-03  -4.0112035686732301e-05 -4.0522796673293046e-05 -4.0649922871147269e-03  -1.4602934449810877e-05 2.7634569812482753e-07 -4.4355481206710887e-03  -1.4265817114134969e-05 1.0755566775331532e-05 -4.3244414954287996e-03  4.9874561272639982e-05 7.6047250264635064e-05 -3.2488766452635652e-03  -1.1432615333199975e-05 8.4340683549429938e-06 -4.0719129025977617e-03  -4.2080593228271421e-05 1.2738601485326997e-05 -5.0105952240427475e-03  -7.5689475591724990e-07 -1.9842487090729503e-06 -4.5019627098509436e-03  -3.8249308437875989e-06 6.0511044997891635e-06 -4.5757754767546755e-03  1.8311464459867754e-05 2.1482245298637267e-05 -4.5450209526859756e-03  2.2110248330911558e-06 6.0298934426019442e-06 -4.4663695607385680e-03  -5.6617850978883624e-06 3.2746170012187582e-06 -4.6387886684800921e-03  -3.1397796339826210e-06 5.9704405077113973e-07 -2.9286357451781112e-08  7.2786368211547425e-05 1.3049385716708246e-05 -3.0606329977118127e-03  -1.5587904680181681e-05 -8.2036930626818363e-05 -3.4267794504090846e-03  -2.1199242612851729e-05 4.0343483193207935e-05 -3.5826173569868964e-03  -8.3757847525806505e-06 1.5184083766220201e-05 -4.5224735305100117e-03  -2.1436135969226529e-05 4.7805683873441370e-06 -4.3753920277720100e-03  -2.9807324890324940e-06 -2.3995802660001894e-06 3.2428747331582078e-07  2.1528603471338418e-06 -4.0849824126947168e-07 -3.4052634629972629e-07  -2.7990941204320629e-06 3.5276462743209000e-06 -4.6650503076057295e-03  -3.4792724344440998e-06 -8.2455070325845296e-07 -6.0039874100958878e-06  -1.0980039937088587e-06 2.3272874752161837e-06 2.2179804806977583e-06  4.1869352519063724e-06 1.2186839402405928e-06 2.6787899414724410e-06  -5.2272925476651031e-06 -6.4528587502462128e-05 -2.7912962112105074e-03  -2.3743930206538035e-07 -2.8289966169135418e-07 1.8338251446960098e-06  -9.3919102991021770e-07 -1.2231236344657461e-06 2.1422536519069046e-07  -9.3274452753452875e-07 7.4303823048105150e-07 5.3977381089704693e-07  -2.2866639333190549e-05 1.3769233711211182e-05 -3.5032722362949450e-03  -2.9358586293241111e-05 -6.4671788424028029e-06 -4.2765677994462984e-03  2.8430704411639171e-06 2.6971420273335422e-06 -4.6691671135281670e-03  1.4074399247163024e-05 -2.9538087031857652e-06 -4.4134949379925894e-03  -5.8949598344188367e-06 -1.8153887169254225e-05 -4.2704501507226829e-03  1.0477393274178182e-05 -4.7105697904009856e-05 -3.4835407012166670e-03  8.8181110947281461e-06 -4.7686646010674581e-06 -4.4880209012763640e-03  8.8137007634885782e-06 -4.5241007335934136e-05 -4.4313542280991717e-03  -1.8806208667337826e-05 -3.4801822472081741e-05 -4.3143612509092630e-03  -3.7141947630172793e-05 -1.3291693833336764e-05 -3.1555681856588937e-03  6.4300077420929860e-05 -9.3794992565689663e-05 -4.2952419545128273e-03  -2.1657136960127938e-05 1.8658356566081223e-05 -3.7964254330170298e-03  -6.3024416475261706e-05 -1.1247938245574386e-05 -4.2676867203006851e-03  -1.3126919228652600e-05 -1.1548348171022614e-05 -4.4459828475951401e-03  -2.6720166468188319e-05 3.0813267049672745e-05 -3.7398889726614750e-03  -4.5380473170005465e-05 -1.2969321942005177e-04 -3.5727895928583356e-03  -2.8867748434956188e-05 -2.4673139096830573e-05 -4.0774511083318610e-03  5.7500433482883976e-05 -1.2235165667581537e-05 -3.4191824602800569e-03  1.0672817899897450e-05 4.2453599706335962e-06 -4.3682782716778492e-03  -2.0815116418761892e-06 5.1399020950197842e-05 -3.6755224180701797e-03  -8.9610273749199948e-05 2.7041320075437862e-05 -4.6289169090312386e-03  5.5822010428079617e-06 7.9931688507694442e-06 -3.1837157347031071e-03  1.6360758621002340e-05 8.5917215912098714e-06 -4.4354631029730786e-03  1.1330387208136182e-05 8.6144509405533367e-06 -4.3980658784827445e-03  4.9761793839306293e-06 -5.7620691189894474e-06 -4.0701061412286117e-03  -3.1470384074333465e-06 1.0693534240659616e-05 -3.8032583716128840e-03  1.3429160560745878e-07 1.8451486158386929e-07 1.7861117599619274e-06  9.6347980606256437e-06 6.5461069399989184e-06 -4.5269180509418250e-03  1.1913947131809448e-06 1.3935811150704739e-05 -4.5944079367431535e-03  5.5025703510921531e-06 2.1439106897019532e-05 -4.5134561776414917e-03  1.1652466910736900e-05 2.0391604432256414e-05 -4.3938362890176049e-03  1.3083565432717783e-05 2.1781965639557955e-06 -3.5551576293545383e-03  1.0484846608780352e-06 1.8222441704859735e-06 1.6520413909599586e-07  4.1257680385849042e-05 7.6102409295275824e-05 -3.9032089597023393e-03  -1.3197408071858615e-04 5.5400569904322964e-05 -3.1144156459755128e-03  1.1557438426292371e-04 -7.2119493792193961e-05 -3.5591649012835617e-03  -7.3225771667662696e-06 3.0487610815866390e-05 -4.5796170312041619e-03  -1.5451618557188761e-05 8.0306508507780178e-06 -3.9074473713620606e-03  1.5416202321816245e-05 -6.1128705427678390e-05 -4.1352333026646003e-03  2.8376982000768825e-05 -5.6005502433193833e-06 -4.2868281266398084e-03  2.5862047368624440e-06 3.3903052425155150e-05 -4.4633401674006607e-03  1.0158556889087123e-05 -1.6172029377595914e-05 -3.1905701626666837e-03  -2.8463076853727868e-05 3.3287026301566914e-06 -3.6504362465921724e-03  -3.3191634353631582e-05 3.6932766887582808e-06 -3.4662428222209524e-03  7.3279638185178139e-05 2.9442429427474493e-05 -4.7314062658356127e-03  8.3106669843726914e-05 4.3927377965659708e-05 -3.7706884404471752e-03  4.4972144896593561e-07 3.1702405847082526e-05 -4.1045563564698975e-03  -4.2805942169122567e-05 9.5475532548933605e-06 -4.1530587094037313e-03  -1.5525804819951306e-05 -9.9531237859043540e-06 -3.8944466627477609e-03  5.3339458491114895e-06 -1.1113352051528147e-06 -4.3630400294735259e-07  -1.3713422970308798e-06 -2.2068527157630345e-06 7.3749903191085244e-07  -1.2773240560106581e-04 8.4531527426932933e-05 -3.8699773982378118e-03  6.6951193998432610e-05 -5.8191959447930771e-05 -3.0149353847888126e-03  1.9906654216165544e-05 1.4577880497388755e-05 -4.3910096317151650e-03  4.7111806850687334e-06 7.5606786834148091e-06 -4.2806462126675077e-03  -2.8912003959205357e-06 4.3215197586181231e-06 -4.5720463048720805e-03  -2.5564506756669257e-06 1.4950369982138846e-05 -4.5881444227303123e-03  1.1338388070940819e-05 -7.0800099574978618e-06 -4.4398510860069445e-03  -4.0374272959341182e-06 2.1643259349295755e-06 1.3468768912456951e-06  1.5065911682039408e-06 5.5179894129003713e-07 -1.0219804909889852e-06  -2.2895480332335958e-05 9.4702467455718125e-06 -3.8844450774245792e-03  -6.9940959398680436e-08 2.2950258494019303e-05 -4.4261430573612247e-03  2.0606845350619477e-06 -4.0519694917232155e-07 1.7087338924538080e-06  1.0851620554193676e-06 -3.9734832846361294e-06 7.0581102064159626e-07  -6.0361062537289941e-07 -5.0778444901547005e-07 2.2620683686957583e-07  -1.3993528236488303e-05 1.8753078216159970e-05 -3.7447004169799342e-03  9.1735320349912906e-06 1.8229714348844771e-05 -4.2837894273265826e-03  9.3498334686098295e-06 -4.9681144911726271e-06 -3.8872849945519468e-03  -1.1626459293438165e-05 1.0383727598329829e-05 -4.4302212416303223e-03  -5.8415803390436593e-07 -2.8644159337481264e-05 -3.8301815479920252e-03  -1.2479368358766416e-05 -4.2791310185387613e-05 -3.3836416065784686e-03  4.7299273664218940e-05 -1.1785157566526925e-06 -3.4363768973978393e-03  -2.8706019318133884e-06 1.8639072707036974e-05 -4.1082782490497356e-03  -9.5363945199156494e-05 -7.7681419302921733e-05 -3.6690058932573127e-03  3.1755336341899519e-05 -4.3831167663057558e-05 -3.0115627920763340e-03  -2.2559809860960935e-05 -2.1162092476565280e-05 -3.8652974228640122e-03  2.3535232441004666e-06 2.8176894932456659e-05 -3.4423369175982607e-03  2.6876112971144648e-05 -9.3134661204224896e-06 -3.7513756509387109e-03  1.4633730497019185e-05 -3.0536456295656873e-06 -3.1772182141477836e-03  2.9715821065016221e-05 2.2968147932752143e-05 -3.9470459216560299e-03  2.3447016875157414e-05 -3.5518822606457583e-06 -4.2116565094578893e-03  -9.1529554078037182e-06 -7.8883723092446417e-06 -4.3442314548212489e-03  -1.9662392527120863e-05 2.2177679758553345e-05 -2.9549503258634699e-03  1.3484730059290628e-05 -6.2106240086055262e-06 -4.2399201547774316e-03  1.7398496544054638e-06 -1.3545788191061241e-05 -4.0120140778358545e-03  -2.6341385880246628e-06 7.1786930900005841e-06 -4.2366770545556685e-03  9.4315519670918942e-06 -5.1616096258470579e-06 -4.5124432269083008e-03  -6.6767301066603661e-06 1.8425762067367617e-07 -4.6011230144753362e-03  -4.5913627336078648e-07 1.4390047253312839e-06 -1.0371999481902743e-06  6.1191524883895062e-07 -6.6842603829068089e-07 -1.8485311379295287e-07  1.9084985004894996e-06 -4.2759788817365538e-06 9.3782210983877108e-07  1.7616416660139859e-06 1.6047733117198930e-05 -3.2715542313217186e-03  3.4165308125436405e-07 4.4980630412780252e-07 -1.8141466600887523e-07  -4.5236948267179698e-06 1.1228546520452334e-06 -1.6964758966823384e-06  -4.1939295065197455e-07 -2.1135537825864931e-06 7.5793069651659824e-07  1.9366732938275533e-06 -2.8992099652060848e-07 -1.0918380754207871e-06  -1.2662609662103491e-05 1.1464066467798273e-05 -4.3426502785912629e-03  6.9696542342999479e-07 8.7691767084059020e-06 -4.9430540360684838e-03  -6.3141600899047972e-06 -9.4908049604578373e-05 -2.9404681048326355e-03  -1.0899444257859333e-04 -3.8879613550725347e-05 -4.1713397475846856e-03  2.3263392037319807e-05 -1.5383633549877909e-05 -3.8899716621987532e-03  1.8165435368387846e-05 2.0064128408315285e-05 -3.4914428076720607e-03  7.7816634519186050e-07 -3.1120551253784448e-05 -4.1771120748712838e-03  -9.2857108168317557e-09 -4.9210601591595785e-07 5.5310006078620619e-07  1.8703747929875188e-06 6.3450818811378583e-06 1.0535982083635614e-06  1.0459485253335306e-04 -8.7030633082664239e-05 -3.4823820099988880e-03  -3.8027115793904068e-05 3.7454340125136027e-05 -2.0732026561144918e-03  -8.3197144563329738e-06 -1.3943452798302196e-05 -4.0815785459398747e-03  -1.1082394896419388e-06 2.1936013612445567e-05 -4.2286618801778307e-03  8.6562473022574280e-07 7.1366004822583716e-06 3.5060777137083912e-06  -7.7242975113473958e-07 -1.9887814424887183e-06 2.0949261767654604e-06  -2.6204538587111052e-06 -4.0666925284393030e-06 -2.2628861270537081e-07  1.8114714032351125e-05 -3.6114909535688916e-06 -4.2723267401582211e-03  6.9152833388066242e-07 -1.6618478677786142e-05 -4.2981541146979154e-03  1.1661663339380343e-05 8.4856111110027820e-07 -4.1441727575056682e-03  2.7907986485392376e-05 1.7037033582971507e-05 -3.6982092258297044e-03  1.2269477915754848e-05 -3.0616656965501643e-06 -3.5901708540434646e-03  8.4337275870476721e-07 1.3576959068540128e-06 -4.5626772653898804e-03  3.0596633689761019e-06 -3.5303670986199862e-06 -4.5054467114786370e-03  -8.2081431836216721e-06 -9.6080851685731050e-06 -3.8451882856024152e-03  -2.3760688029930612e-05 -1.3681219585252911e-05 -4.0288433178746284e-03  -1.3131106237875837e-07 4.5888597790177548e-06 -4.5699482962603998e-03  2.0088892807419461e-05 -3.4893291319553542e-05 -3.9004236629452036e-03  -6.9063771488344119e-08 -2.4691218067080449e-06 1.8911653096158036e-07  -3.7871377247007776e-06 -1.2594089702499875e-06 6.0294469072090052e-07  8.8581118379697508e-05 -9.4317540457816506e-05 -3.3490870810582319e-03  -8.4167697405924428e-05 5.9974586737297054e-06 -3.3541810701485228e-03  1.1214341293688509e-06 5.6170935989780141e-05 -4.0560071168041674e-03  1.1886276498514932e-07 5.3762326856645602e-05 -4.0533332413160358e-03  9.9503220762285425e-06 3.5722999638749911e-05 -4.5046741298212286e-03  -2.3370959475718406e-07 -3.2105060965709393e-06 -1.7687330969460451e-06  -2.7899620369683496e-06 -2.1407829015180589e-07 2.4944989544227264e-06  -2.2151694481244276e-06 -3.9399054894728750e-05 -4.4021701487232130e-03  3.4705757121169084e-05 -3.1021634426053437e-07 -3.2730441953027359e-03  -7.1553345180470018e-06 -2.0688622598330170e-05 -3.0887183096119843e-03  -1.7528123201364037e-05 3.7764126203983034e-05 -4.1344971033150579e-03  4.7930333546182089e-06 4.1896543505988393e-06 -4.5467841620741066e-03  2.0853136092575432e-06 -6.0103064437785431e-08 -6.0253357251869415e-06  2.1076649778263883e-07 7.4858431490530445e-07 -3.3731576335130996e-06  -2.5216437441180104e-07 -1.8743922547774118e-07 3.6442852659964098e-07  1.9486230461079775e-05 9.9775881111691725e-06 -3.7906575993700499e-03  7.1285420135636084e-06 4.0365693716250506e-06 -4.4516181566587321e-03  3.9213363114384464e-06 6.2875208722575826e-06 -4.5582953767107342e-03  1.7612294621462490e-07 3.1074393356195700e-06 -3.8838675019994425e-03  1.2108989058940371e-05 4.6923206479931495e-06 -4.4877449530296033e-03  -9.5211532126574887e-06 -7.2578503048595679e-06 -4.5084135244650774e-03  3.4088047166853645e-06 1.5967812790357184e-06 -4.3004961890646910e-03  8.9446348280809797e-07 -2.6369383060470700e-06 -4.8327842284052939e-07  -1.6633610041291664e-06 1.1429109303270142e-06 5.2637094696418831e-07  -3.9899949650070324e-05 -1.7291799471448066e-05 -3.5795771266847755e-03  3.7277490092428695e-06 1.7295204084707761e-05 -3.3220140424300715e-03  3.7732784422501107e-05 -1.7314337547157858e-05 -4.1856917934356029e-03  1.7065077964576913e-05 -7.0354801325961301e-06 -4.2750810549298315e-03  -1.4184332529987031e-05 -4.5969986351800805e-06 -4.4706037592757552e-03  -3.6500154097607805e-06 -9.9961558901341217e-06 -3.8890093067972887e-03  -1.0556730477775025e-05 1.4001939360390050e-05 -3.9285637185715776e-03  -2.9360529276225369e-05 3.0534131907531016e-05 -3.6937634121167805e-03  -6.9174548498470017e-05 4.6905034693126802e-05 -4.0295034053508495e-03  2.0120711239071311e-05 2.2223800041987359e-06 -4.5315018635504771e-03  4.8994701735776345e-05 2.3878410737287529e-05 -4.6718938082200160e-03  2.7441291387910244e-05 4.4139317359163167e-06 -4.1368716756608618e-03  8.5083616846590061e-07 2.2744217248433935e-06 -4.5125849615816234e-03  2.9846263850136298e-05 -1.7048582400516065e-05 -4.4913113017408897e-03  1.3749416292565232e-05 -2.4202741667321128e-05 -4.5246010920421817e-03  6.7468651211731502e-06 -6.0400528745596685e-06 -4.5528982908518483e-03  1.8195367324569885e-05 1.0133927289872361e-05 -3.9452712196102850e-03  -7.6744721987120025e-06 9.9850643184114961e-06 -4.0559838873203934e-03  2.2923829411166647e-05 -1.5334889201875434e-05 -2.6887921386191164e-03  -1.0395794620091433e-06 -5.7387377463486914e-06 -3.8273946994635622e-03  -5.8708040232201850e-06 -2.5275019500841688e-05 -4.4426025684731934e-03  -4.3621323539668358e-05 -5.7084878628107978e-05 -4.2407937961713351e-03  2.6312959796375291e-06 4.4720669776433858e-05 -4.1368086584846423e-03  -3.8079793765319870e-05 6.6458310956404914e-06 -3.4139412131566640e-03  -7.4892777221931327e-06 -1.8331678741312945e-05 -4.3233476528307824e-03  -2.0749111087208721e-05 -3.1710263234041559e-05 -2.9864647598935603e-03  9.6973394784119290e-05 2.5663425869551532e-05 -3.3203559926378154e-03  -2.5511570998283195e-05 2.6984436988210518e-05 -3.1336463255345623e-03  3.8473414034446650e-05 -9.7909601419097616e-05 -4.3388083608175421e-03  3.8093325686408163e-05 1.6458147118690152e-05 -4.1044086593951534e-03  -2.2916973340307692e-04 -3.4790096614323215e-05 -4.1289310975464420e-03  -1.1803610347057519e-04 -1.5323779132175045e-06 -3.8789526542514115e-03  1.3658889830347890e-06 3.4292259732694465e-06 5.4819468188993726e-07  -9.3340603460481361e-07 -1.0484896825451059e-05 -5.0089557720541289e-07  -3.1006056613194400e-06 5.4471299217315463e-06 1.9347172297393240e-07  1.1712200748508236e-05 -2.4462120635864166e-05 -3.6459328692137701e-03  -5.7485387930181052e-07 -6.7676395960693481e-05 -4.3131478588848424e-03  1.8601144720300866e-06 -1.9065308940347993e-05 -4.0927116696540594e-03  -7.5406189716384437e-05 -6.0104549204672150e-05 -4.0875022129986810e-03  -2.1782746914706180e-05 4.9732750159158083e-05 -3.6924277323571223e-03  1.3297577443446125e-05 1.1760943473517732e-05 -4.4343230316774042e-03  8.8810104726586126e-05 4.5126088407461434e-05 -4.3274029364154618e-03  3.5532319862986061e-04 -1.7319766239355499e-05 -3.1724789185175093e-03  -3.0082331493265894e-06 3.1310287711992578e-06 -3.7195641397220810e-03  1.9375431160813018e-06 3.9535166159134185e-06 -5.4578352582377861e-06  -4.5464073112405973e-07 3.5663823606348108e-06 -4.7747081029397451e-06  6.3844469596503934e-06 1.0941968344278181e-04 -4.1059600207638287e-03  1.5089508235997437e-06 1.6652264478784340e-06 -4.8507746914814569