<?xml version="1.0"?>
<VTKFile type="UnstructuredGrid"  version="0.1"  >
<UnstructuredGrid>
<Piece  NumberOfPoints="857" NumberOfCells="3763">
<Points>
<DataArray  type="Float64"  NumberOfComponents="3"  format="ascii">-0.0182597916573 0.126128911972 -0.119588643312  -0.0077641364187 0.0512270443141 -0.07050477713349999  -0.0237180162221 0.16240182519 -0.053058128804  -0.107877351344 0.105669431388 -0.0502408407629  -0.0444478429854 0.116080775857 -0.00235075876117  0.0393674038351 0.112876079977 -0.0491501875222  0.0248903874308 0.0489483103156 0.000152088920004  0.0314915925264 0.114928804338 0.0218031276017  -0.0657326281071 0.0685198307037 0.0497140102088  -0.0355357266963 0.164656624198 0.0508319064975  -0.010538729839 -0.0422629192472 -0.208358153701  -0.0239527057856 0.0135364839807 -0.242119863629  -0.0194642152637 -0.0775559768081 -0.263431429863  -0.08492307364939999 -0.0108216870576 -0.280446648598  -0.08293507993220001 -0.0361198186874 -0.159778758883  -0.0240796487778 -0.0824203491211 -0.148982465267  0.0430508553982 -0.121076337993 -0.234084427357  0.0307756774127 0.0324950888753 -0.198437720537  0.00352357281372 -0.00433266581967 -0.144715368748  -0.0456651262939 0.08372022956609999 0.342343091965  -0.116630032659 0.0117083769292 0.386158525944  -0.08223126828669999 0.0577075146139 0.289406776428  -0.0511222109199 0.00205342215486 0.300772219896  -0.0125984866172 0.0267426930368 0.351842552423  0.0303636882454 0.0561947338283 0.391145974398  -0.0524924062192 0.0543583929539 0.40361738205  -0.07944945245979999 0.130002260208 0.441037595272  -0.000730989675503 0.119443200529 0.385622620583  -0.078488714993 0.137875169516 0.332541137934  0.0142801422626 0.110509291291 0.27100610733  0.0224165506661 0.08303219079970001 0.331783413887  -0.0170432701707 0.161798536777 0.30022162199  0.000811119796708 -0.0515509881079 -0.08419398218390001  0.0888616070151 -0.015075173229 -0.0776951387525  -0.0989535748959 -0.0518730916083 -0.08125374466180001  -0.0433920919895 -0.09785594791170001 0.0106235472485  -0.0488061010838 0.0295096840709 -0.0131453983486  -0.25 0.25 0.5  -0.166666666667 0.25 0.5  -0.25 0.195066730511 0.445658150344  -0.19506166517 0.25 0.445542865294  -0.0213422998786 -0.126349791884 -0.045622177422  -0.117952652276 0.0158270020038 -0.16616243124  -0.0531469397247 0.0490713231266 -0.13630309701  0.0358348339796 -0.131537660956 -0.134171053767  0.0583617314696 -0.115307979286 -0.0462360456586  0.010585160926 -0.0606908276677 0.314250290394  0.078067921102 -0.133790805936 0.331458956003  0.0206208750606 -0.104583717883 0.36723652482  0.0300164371729 -0.13569638133 0.270959883928  0.0797956883907 -0.07311873137949999 0.388136893511  0.0291880238801 -0.0850581228733 0.220644980669  0.0788302049041 -0.07555303722620001 0.284453928471  -0.0465739220381 -0.108428947628 0.305151432753  -0.056692365557 -0.0812899768353 0.234353885055  0.10282895714 0.0630551427603 -0.0452189296484  0.178613707423 0.153893724084 -0.0703043565154  0.0750898644328 0.130835875869 -0.116260357201  0.0179002508521 -0.0400723591447 0.396018892527  0.07961820065980001 -0.020668130368 0.232235535979  -0.00726175494492 -0.022667773068 0.242156982422  0.0524490773678 0.0171752162278 0.310696065426  0.0103002395481 0.0813155695796 0.107229083776  0.00225681974553 -0.008687185123560001 0.0457225777209  0.177950121638 0.25 0.0405701099774  0.151375159621 0.202163234353 -0.00268407491967  0.13042794168 0.172564610839 0.0599601529539  0.184557154775 0.16295710206 -0.00737970136106  0.0827306732535 0.011830884032 0.0299163535237  0.106673434377 0.0676268041134 0.0663062110543  0.25 0.25 0  0.25 0.177947182503 0.0435581305687  0.0251978598535 -0.0201241951436 -0.0233656335622  -0.25 -0.25 0.25  -0.175495340629 -0.25 0.295351832328  -0.25 -0.175776260788 0.294629825204  -0.164853364229 -0.189889326692 0.246240898967  0.111295968676 0.25 -0.00354384794953  0.0417815256417 0.25 0.0264120515999  0.0577150444892 0.25 -0.0418173710713  0.035034801811 0.196921139956 -0.0497792549431  -0.115254960954 0.0352221727371 -0.0357825122774  0.0360979661345 0.0743419006467 -0.130612716079  0.08110298216340001 0.0143552683294 -0.135737240314  0.0281950440258 0.110801942647 -0.38559025526  -0.000352636008756 0.154027625918 -0.45018479228  0.0220217909664 0.07910815626379999 -0.445265561342  -0.041934799403 0.09297795593740001 -0.440330862999  -0.115356497467 0.128115877509 0.0303980205208  -0.08144567906859999 0.192924261093 -0.0396481454372  -0.0503155887127 -0.140062868595 0.370642662048  0.0181560348719 -0.191118896008 0.319997102022  -0.09442232549189999 -0.0766885429621 0.347179293633  -0.10306725651 -0.0245223585516 0.261891931295  -0.0371639840305 -0.192689821124 0.258922994137  -0.08778057992460001 -0.193450272083 0.293951839209  -0.116932563484 -0.137108251452 0.278956532478  -0.0434515699744 -0.19969072938 0.340430229902  -0.016621209681 -0.143479332328 0.208528921008  -0.0799133181572 -0.177766740322 0.206858798862  -0.0340202823281 -0.07231882214550001 0.405357718468  -0.153045728803 -0.0703692808747 0.28540495038  -0.0647673308849 -0.069349065423 -0.297796696424  -0.0468406006694 -0.118580199778 -0.331259429455  -0.0636249184608 -0.122360698879 -0.235275790095  -0.137311711907 -0.115820750594 -0.279358655214  -0.25 -0.25 0.333333333333  -0.00222280388698 -0.0275516584516 -0.327156513929  0.0233143884689 -0.124395690858 -0.330935031176  -0.00544846989214 -0.0444226972759 -0.392852008343  -0.07202984392639999 -0.0450558848679 -0.379192590714  -0.128861442208 -0.0482712239027 -0.325591087341  -0.0319190612757 0.25 0.27473160228  0.0259018652141 0.196524605155 0.343851953745  -0.0424101948738 0.196461260319 0.324036180973  -0.08801463991400001 0.193724930286 0.280150324106  -0.051391992718 0.129726842046 0.244459152222  0.0793330296874 0.131078347564 0.273738384247  0.0304427426308 0.197590425611 0.258007407188  0.139736711979 -0.103549621999 0.308288753033  0.117407329381 -0.00031748006586 0.284001767635  0.17845864594 0.0137020656839 0.2717012465  0.133446916938 -0.07468281686309999 0.252671837807  0.193237304688 0.0103836003691 0.32706490159  0.108656100929 -0.016409387812 0.370573759079  0.195593327284 -0.0705924406648 0.374003827572  0.204297035933 -0.0882691517472 0.283604085445  0.15987212956 -0.0232784096152 0.211559042335  0.103109702468 -0.0715631917119 0.185957938433  0.25 -0.177950121638 0.0405701099774  0.25 -0.111295968676 -0.00354384794953  0.168315500021 -0.181550845504 -0.0129796266556  0.203061833978 -0.0839376300573 0.0201103240252  -0.123973377049 0.0421161539853 0.0831994190812  0.10652089864 0.041568480432 0.133020982146  -0.00508088478819 0.00464248098433 0.118765294552  0.0384838804603 0.0542355030775 0.219570666552  0.0556482039392 0.09942726045850001 0.165778696537  0.25 -0.25 0  0.25 -0.17904445884 -0.0421267671166  0.0085972994566 0.139411628246 0.206887423992  -0.0427397117019 0.0734880268574 0.199836358428  0.25 -0.25 0.166666666667  0.177338154858 -0.25 0.209433902167  0.178222204231 -0.25 0.126578397361  0.180748909712 -0.154124230146 0.180074676871  0.118582360446 0.0498475395143 0.233844980597  0.113276541233 0.115120351315 0.208414897323  0.068451166153 0.123325429857 0.09300038218499999  0.08695217221980001 0.18308262527 0.11987875402  0.1366494596 0.0978636816144 0.125807240605  0.0170362386853 0.165571182966 0.116205818951  -0.075325883925 -0.13042730093 -0.120773427188  -0.191016584635 -0.1764793396 -0.0778442546725  -0.102759346366 -0.20253264904 -0.07015967369080001  -0.126150563359 -0.115044787526 -0.0573479756713  -0.138729035854 -0.104583211243 -0.134180948138  -0.147993162274 -0.138949289918 -0.203295826912  -0.180331096053 -0.192031860352 -0.160557568073  -0.194399222732 -0.0846866071224 -0.148938387632  -0.11259970814 -0.078034222126 -0.193649172783  0.0326924659312 -0.122268341482 0.0296003930271  0.0215157996863 -0.180560961366 -0.0757267251611  0.0956164896488 -0.0493310950696 -0.0164182558656  0.112129375339 -0.112067811191 -0.105549775064  0.127802968025 -0.106147237122 -0.0110959038138  -0.0854129120708 -0.015297700651 0.056893799454  -0.0204317308962 -0.0795602425933 0.117458000779  -0.178222204231 0.25 0.126578397361  -0.177947182503 0.25 0.0435581305687  -0.107976816083 0.25 0.0905854563709  -0.157577678561 0.178241759539 0.0969507619739  0.25 -0.25 0.333333333333  0.25 -0.25 0.25  0.175776260788 -0.25 0.294629825204  0.25 -0.175495340629 0.295351832328  0.0932372882962 -0.0430554822087 0.0724518448114  -0.044769000262 -0.00661279587075 0.403999477625  -0.194478780031 -0.0247275307775 0.332954645157  -0.173761367798 -0.0806607827544 0.396263659  -0.137637495995 0.00523930834606 0.315887242556  0.0864742994308 -0.139340251684 0.176064118743  0.105438224971 -0.136641919613 0.253711819649  0.0308670303835 -0.25 -0.136809572586  0.0367561832589 -0.25 -0.219583441074  0.0925811678171 -0.20055809617 -0.19996842742  0.0127155454829 -0.193433105946 -0.225977659225  0.0415658205748 -0.200880005956 0.196522325277  0.0373581312597 -0.119548290968 0.120048768818  -0.0954102815882 -0.25 0.346414074494  -0.101368582479 -0.25 0.251933327382  -0.0374909392175 -0.25 0.286229296012  0.0852289572358 0.109103307128 -0.27055695653  0.07707493752239999 0.127253636718 -0.199824258685  0.128097131848 0.07648140937090001 -0.209757223725  0.154867321253 0.13628205657 -0.212952241302  0.08678253740069999 0.189277544618 -0.274375885725  0.127699971199 0.0803090333939 -0.326344817877  0.0577741526067 0.0601542405784 -0.31936660409  0.0525139421225 0.129102528095 -0.326874881983  0.0251371748745 0.175572559237 -0.261228203773  0.0199144631624 0.0927290171385 -0.265960127115  -0.148952946067 -0.121583275497 -0.374568909407  -0.25 0.177950121638 0.0405701099774  -0.25 0.111295968676 -0.00354384794953  -0.175531774759 0.135734900832 0.0562076568604  -0.178730383515 0.191659659147 -0.00562386959791  -0.0244714934379 -0.108516678214 -0.387223660946  -0.09279609471560001 -0.170035287738 -0.445968538523  -0.0281062982976 -0.0
[...]
<PointData  Vectors="f_104"> 
<DataArray  type="Float64"  Name="f_104"  NumberOfComponents="3" format="ascii">6.0176052299784086e-05 1.4212402259575045e-03 1.4636737102653094e-01  1.0086401366975742e-03 8.2916672924761086e-04 1.7574822811268279e-01  -1.7895096027444442e-04 1.0854220683353026e-03 1.1963774663414740e-01  4.4274054946308493e-05 -6.2562531898223037e-04 1.4100145416092724e-01  -1.8692548346013421e-03 1.6849278341907602e-04 1.5334415197623844e-01  -1.6805591756161840e-03 -2.4735084269916683e-03 1.5523519654763132e-01  8.2590748423274089e-04 -4.4557283977587133e-04 1.7584476635051671e-01  -1.3041749135199040e-03 -2.4639727299702845e-04 1.5305732549559170e-01  -1.5458813220773325e-03 -8.0488346564622776e-05 1.6715956223137221e-01  8.8314731904588837e-05 2.1391196737382844e-03 1.1984107696584959e-01  -1.6055448906261325e-03 5.9900660283777177e-05 1.7621396400265363e-01  2.6932735073924925e-05 2.0130849536837721e-04 1.7763780685828090e-01  1.8555236085623139e-04 4.4756494251315814e-04 1.6530712515372434e-01  1.5516228732356626e-04 -3.0269352856177787e-05 1.6111260289599261e-01  7.4239662364233481e-04 1.3328414947079543e-03 1.6395319685349288e-01  -3.8923734219979369e-04 -8.3347902880689646e-04 1.6703573434246069e-01  -1.2536981985140751e-04 6.4697035313584193e-04 1.4082942306232471e-01  2.0078719961313607e-04 -1.4422397360437601e-03 1.7648579857920185e-01  -4.5423579694927864e-04 -6.1726662782681429e-04 1.8174989466149893e-01  -7.1179256025954152e-03 9.7959864557881846e-03 1.5386125971291220e-01  -1.7407205772065348e-02 1.5989532905735023e-03 1.4444810346487416e-01  -6.0342215784975296e-03 3.0956822321377472e-03 1.6259458418056835e-01  -8.3556043220391358e-03 -1.1094505979762468e-03 1.7205446950059775e-01  -5.5942788110046075e-03 2.6520843944212880e-03 1.6189833519803987e-01  5.0000110011623189e-03 9.1145806812480447e-03 1.4563317116653529e-01  -9.3226058068219819e-03 8.6799306964462676e-03 1.4309437955211260e-01  -1.4475184574365762e-02 2.5322450972752316e-02 1.2757014606242342e-01  -1.0954153262446615e-03 1.5424815078097445e-02 1.3701910655105629e-01  -4.4813494240642801e-03 7.1739531115043746e-03 1.2756128578089304e-01  2.5355091146312056e-03 5.6611856920676428e-03 1.4824025160524090e-01  -2.3004077367302513e-04 7.1142663301416217e-03 1.5510100262680571e-01  -1.1895879013168206e-03 4.7255814806212090e-03 1.2251411533849157e-01  -8.9641560158871874e-04 -4.0319666808474880e-04 1.7610781138976889e-01  -5.2742523697010071e-05 1.3768732268117194e-03 1.6262801971994587e-01  5.2217189810203106e-06 -1.6028773252935128e-04 1.5440263987627351e-01  2.5365492980996278e-03 -1.9251759427405309e-03 1.6150091614851880e-01  -1.7633539228458729e-03 2.9611860417579224e-03 1.7696389906284588e-01  -1.0190828566897485e-02 1.1860924670178378e-02 1.3517308023371222e-01  -8.8175357394995550e-03 7.7229526052018764e-03 1.2855416191173641e-01  -1.0109368596510744e-02 1.4896807645408908e-02 3.1892381689517774e-02  -7.9276122524230292e-03 1.1131650953644231e-02 3.2061260513430494e-02  2.1248454256050440e-03 -9.8154476319397177e-04 1.4993358118768599e-01  1.3055819520158619e-03 -1.6544926790421335e-03 1.4550071077595744e-01  -1.3855461343825668e-03 -6.6542798907193558e-04 1.7247727194854762e-01  -4.2534020072826405e-04 -9.5310557307951092e-04 1.4027299501422083e-01  -9.8485310349073632e-05 -3.6152141181356096e-03 1.5405509576438953e-01  3.7313493242528005e-03 -1.0609313918925164e-02 1.6369736856146749e-01  8.2977105660349774e-03 -8.6193076159176464e-03 1.2527090906948354e-01  3.7681954396031649e-04 -1.5046991489283259e-02 1.4208883118740154e-01  2.7178752122589828e-03 -9.7304436782090394e-03 1.4492292276410970e-01  1.7215391758112836e-02 -1.2647718675854304e-02 1.3596443386739168e-01  1.1640919103367503e-03 -5.4741599682330512e-03 1.7302625499461402e-01  7.9952759771893169e-03 -8.8426801347620092e-03 1.5550077367035178e-01  -2.6060326954909395e-03 -9.8442954294219558e-03 1.5519338671006372e-01  -9.3350408617324848e-04 -6.0589935595609119e-03 1.6524655860478460e-01  4.5145822552845590e-04 -1.0193484406710784e-03 1.4961773188124106e-01  1.5812608235198557e-03 4.6372713794688247e-04 8.2216809076984532e-02  -1.6535253479305716e-03 -1.8060470272710247e-03 1.3430394383650965e-01  1.5354358501857869e-03 -1.1593097719731457e-02 1.5160427211043254e-01  5.3629645662591225e-03 -5.2960389960019635e-03 1.7416679334779661e-01  -9.9159899899716950e-04 -6.8540172661688235e-03 1.9607839467033736e-01  7.2095241293346039e-03 -1.5327257561302864e-03 1.7222442086778808e-01  -1.0442254753262846e-04 -2.4363663966200555e-03 1.7482515483099018e-01  1.1390097333374861e-03 5.3490408874380441e-04 1.8422743262683766e-01  -8.7301338528686314e-04 3.6536014572559892e-04 2.1424326980357396e-02  3.6274695001764484e-03 2.5683018697530793e-03 6.2211433106179749e-02  -1.0610586969627132e-03 1.9077691851411304e-03 9.0635516787532455e-02  -8.2951410726710248e-04 9.2225111507253843e-04 6.7703448644462733e-02  6.6591748458177025e-04 -1.9112552382782525e-03 1.6656323024247988e-01  -1.3902873181305533e-04 -3.7865626648689731e-03 1.5726120888937523e-01  -8.2475811290900970e-04 3.5967701390546649e-04 2.1870848394921604e-02  -9.6809450879955573e-04 5.8539815503174828e-04 2.1363802601734348e-02  4.8431589269487488e-06 -1.9541130405440338e-03 1.7513527085275690e-01  -1.5704084998213754e-03 1.3187656316066367e-03 2.1174787579750848e-02  -3.3583766265550723e-03 1.2685731408578300e-03 2.3154488437720507e-02  -1.6886860123099332e-03 -2.1823603896814280e-04 2.3012383107415529e-02  -2.2546835721710345e-03 -3.5307520971621024e-03 7.3682042478729656e-02  -5.0097526099607259e-04 1.5832496715083598e-04 2.2324202878038296e-02  -3.1084630811940969e-04 2.2763045912408761e-04 2.1785380422979648e-02  -3.4501767931323520e-04 1.9816036051241290e-04 2.2820760152895515e-02  -4.2614506503630186e-03 4.4378219628723727e-04 8.0894648142844014e-02  -1.1031822206411362e-05 1.0143487149724479e-04 1.4752649867784845e-01  -3.6527477594577851e-04 -9.7577621982723154e-04 1.6914447122992754e-01  -1.8675823146031142e-03 -3.0808401620162514e-04 1.6338747768544876e-01  -9.0009907175239278e-05 -8.1687058232082592e-04 1.5006382545395805e-01  1.4744859560391561e-04 -1.2512497079901178e-03 1.2527097344233318e-01  -1.8204868809723367e-05 -1.7974356837755267e-03 1.6577517093165145e-01  2.7942879821651466e-04 -1.4625472530918643e-03 1.5687905131571661e-01  -7.1144278383034119e-04 9.5879304285127458e-05 1.2494370587125041e-01  1.2356914857531503e-03 2.4189784823494065e-03 8.6043674341629031e-02  -4.6425487264984923e-03 -1.2901055683776887e-02 1.3826408958509062e-01  2.6590504631046931e-03 -9.6669163665661258e-03 9.8269796533871148e-02  -9.3893730447022154e-03 -1.1987829137884575e-02 1.4339811067498701e-01  -1.5406907208171548e-03 -4.5116740414065798e-03 1.5807587211116564e-01  -4.0959438491905672e-03 -2.7088131300700364e-03 9.0999848155668459e-02  -5.2502245623581006e-03 -4.8391238753485036e-03 9.5988421153073974e-02  -4.8787899369114240e-03 -9.4232369417388447e-03 1.1873940455751204e-01  -7.9841761935146936e-04 -1.0063623641099926e-02 8.6816690599293117e-02  -9.6597151142988980e-04 -2.9244406543330334e-03 1.4535829823264015e-01  4.6721877281798673e-04 -4.7491587480326071e-03 1.0491006000715457e-01  -7.7130666243363242e-03 -1.7735501938795854e-02 1.4220895559635396e-01  -6.1496066981241186e-03 -3.7339839896931297e-03 1.1956217068810250e-01  4.3325438168903579e-04 -3.0381343998223294e-04 1.5925608254245169e-01  3.4629403372546586e-04 -1.9114999251863244e-04 1.4361105458619167e-01  1.8068895153799456e-04 2.4150885167701030e-03 1.3776324158009429e-01  -2.4929643905000630e-05 3.8065849589064216e-04 1.1622543934223356e-01  -3.9552683449880577e-03 -1.5533726122434169e-03 2.4850960971977497e-02  3.2471630503518632e-05 7.6558825349601030e-04 1.7570803026696719e-01  3.2249240541973480e-04 -2.1471110679939285e-05 1.4431742085433807e-01  3.4383577063397625e-04 -1.0589705351471660e-03 1.7457651148562933e-01  4.3154986138966124e-04 4.4840233389460959e-04 1.6237604776960848e-01  3.1940528064330355e-04 -4.4652186402191789e-04 1.3846039876928615e-01  3.5925454129572947e-04 1.8269724511985063e-03 2.0751009238677808e-02  -2.6750544739553638e-04 1.4787675134668873e-02 8.9602922648123098e-02  -2.3335183494542500e-03 1.2874912485479178e-02 6.9768288055418556e-02  -3.4509852995384203e-03 6.4310120273424294e-03 8.4796378701759906e-02  5.5302971276336094e-04 4.8315188030767205e-03 1.3834323217787156e-01  3.2158910992018336e-03 9.6729225408986718e-03 1.2860698757398825e-01  -1.2517145491671058e-03 5.7423002264391908e-03 8.9481754972566482e-02  8.9820740923639598e-03 -1.1740551564343043e-02 1.2577131826813737e-01  6.9262950173798665e-03 2.0788727477250965e-03 1.4409318574255270e-01  4.8383239145318429e-03 3.7034438241107829e-08 1.0851477037122366e-01  3.6810152256739155e-03 -4.8897869232542518e-03 1.3766624617767126e-01  1.1829176930295910e-02 1.4655051913256927e-03 9.0958657999101730e-02  1.3736646685649775e-02 -4.9427998010538737e-03 1.4454437682540316e-01  1.4806511320040889e-02 -1.1523281067189200e-02 9.7449732206742551e-02  6.7732898243827678e-03 -3.2873144388771728e-03 7.5536018867096821e-02  4.0932634466274006e-03 -3.2095281436272482e-03 1.2873158313820093e-01  2.2806151603418177e-04 -1.5259037978359563e-04 1.5007990240621744e-01  -1.0101651196726608e-03 2.1934875091266567e-03 1.9930416897362926e-02  -9.9961332323959774e-04 1.8503156577710123e-03 2.0867664377686206e-02  -1.7290291607660231e-03 1.0879896143532644e-03 6.6083051450889441e-02  4.5956285001353217e-04 3.8875161482965575e-03 7.3908217782971533e-02  -4.5213155929282872e-04 -4.9568230647918578e-04 1.4319948634344470e-01  1.8025957222465251e-03 8.7769823377412755e-04 1.5112154789569296e-01  1.7390685423491728e-03 -3.4313152805411757e-03 1.7934391316747003e-01  4.3324675786500261e-04 5.3879883150439502e-04 1.7554389414179727e-01  6.4529411537803246e-04 8.6507384166837524e-04 1.6322916166907234e-01  -1.0713406989974249e-03 2.1384535821701856e-03 2.0595262036564418e-02  -7.2440310437463804e-04 1.8899029832411857e-03 2.1312130402893956e-02  -8.6378518241445946e-04 5.1997193125227241e-03 1.4038335881528891e-01  -2.2260907614422005e-03 7.8346437766443531e-04 1.6992640439840589e-01  -1.4103428024710262e-03 2.8088880953149567e-03 1.8635244683969356e-02  -1.0038396635294014e-03 2.9912160496356061e-03 1.8767958801413551e-02  -1.2441964837707686e-03 2.6154701384231024e-03 1.8590713274435917e-02  2.9679191262614374e-03 -1.5130954062634538e-03 8.1385157713086825e-02  2.0884995549752452e-03 4.1570795222138971e-04 1.4250531321068580e-01  2.4598012175161277e-03 2.5146776187804842e-03 1.3243251593401076e-01  2.2688560515448093e-03 -1.3719741745787700e-03 1.4860189228050999e-01  -2.0510434649878670e-03 1.4458423144111758e-03 9.2908242538092406e-02  1.0402877227824823e-03 -1.0122443010639264e-03 1.2965798080149776e-01  -9.0908091360134208e-04 -1.2499744757293165e-03 1.1771633090985555e-01  2.0725575278508807e-03 -2.4895624722372591e-04 1.3628985260978468e-01  -2.9364596826947256e-03 -5.9117781284068313e-04 6.8656808603248826e-02  2.2208461741997335e-03 -1.5708356323456067e-03 7.9565597733938509e-02  -1.2786648878272758e-03 2.9465399829252449e-03 1.1503619632193378e-01  6.0848567864941409e-04 5.9195074224973373e-04 1.1697657839849852e-01  1.4053284088729127e-03 1.5276770662755277e-03 9.9072133245866667e-02  -1.4462726730868581e-03 -1.4458261297850365e-03 6.2866017176773578e-02  6.3315683673840573e-04 2.1543059230599488e-03 8.5099671712669925e-02  3.8636587878828672e-04 -1.2677997807532184e-03 1.4582270468083605e-01  -2.7405629944932060e-04 -1.8652459358974778e-03 1.5003930627671991e-01  -3.9985075258195827e-04 1.2199578536490363e-03 1.0284513231685170e-01  -1.4437720780605028e-03 1.8556818551543771e-03 1.5899291582429192e-01  -9.3110845986635305e-04 -7.6799751244996698e-04 1.3222747423780579e-01  -4.2777576916058953e-05 1.4822086036933278e-03 1.2313179613470168e-01  -3.5528043058563940e-05 3.1843804629539184e-03 1.6171743677173131e-01  -2.2898100381031747e-04 -2.2356421724280830e-03 1.7057843535402628e-01  6.1385256033045209e-04 3.0720445487387912e-04 2.0437212733649988e-02  6.7764811064270495e-04 -5.2890212186710758e-05 2.1335618830722516e-02  4.5206403622391239e-04 2.0259973554734415e-04 2.0781363940528316e-02  1.7272736180465488e-04 7.5641659920101594e-04 7.6455888434114341e-02  3.1508720872137192e-04 3.1562159980670608e-03 2.4682829968592640e-02  -1.2725433363521626e-03 2.7792429817625835e-03 1.9681280855287676e-02  2.4428477718602316e-04 3.3192489749550281e-03 2.1236905256390937e-02  -9.6917709963822854e-04 1.8773940623348945e-03 2.2114560035253139e-02  7.9521132258219510e-04 1.0798057726748025e-03 1.6034999710869366e-01  -1.2234110821662024e-02 -1.1682118117758737e-03 1.5339232590683657e-01  -1.2004392058140365e-02 -3.9972933016263262e-03 8.6140628816919085e-02  -1.7449460475088743e-02 -6.0706700059693381e-03 1.0995850652608893e-01  -8.5633761314809972e-03 1.5463660925089482e-03 1.3959801456086640e-01  2.7099210052063841e-03 -1.5583979426411819e-03 1.2116508093022298e-01  5.5526709734143847e-03 -6.1125153769332778e-03 1.3016447961548028e-01  -3.6718643439499749e-04 1.2320374499752889e-03 2.3118626555349183e-02  -2.7746351485937696e-04 1.0827920964559634e-03 2.3881096932086867e-02  -1.1374756507489426e-03 5.7586998145746284e-04 7.9952412461998315e-02  -1.0391126967790002e-03 1.3136694712018598e-03 8.6734877456862911e-02  2.5317420782632188e-03 -3.5577213874929967e-03 8.2169500863587000e-02  -2.1781368369980462e-03 -6.5078205499533384e-04 1.4310502486122181e-01  -4.7221775273478712e-03 1.7485034751276473e-04 2.1951518836961514e-02  -1.7560357317833433e-03 1.9804728603029769e-03 1.9453985973486219e-02  -1.8599494977178848e-03 2.3381423857369759e-03 1.9188793736113527e-02  -1.8972398689537828e-04 -7.2573715020964372e-04 1.3981273514702303e-01  1.0103052537593288e-04 -2.8730644834839175e-05 1.3440087534499265e-01  -6.3043790908922772e-05 4.4500185558253732e-04 1.3650568059006668e-01  -6.0017001857431995e-04 5.1266301410278958e-04 1.0043490453343304e-01  -4.2078937796058451e-04 4.5921214984942981e-04 9.1436967342237635e-02  -1.0957705255533708e-03 -2.0179480081258927e-04 1.3185415828666447e-01  -2.2098742200885390e-04 -5.4093838515533951e-04 1.6510558466182804e-01  -2.3527006769681654e-04 3.1767097347341666e-04 1.3723100407789948e-01  -2.7180633113876174e-04 2.4621973311548357e-04 1.0426186716613477e-01  -1.9787188322937331e-04 5.7084516699179100e-05 1.6083263093839009e-01  -5.9241170373685453e-05 4.4469893953568205e-04 1.0817609295584636e-01  8.1165634109308792e-04 4.6450944693447361e-05 2.1378362341974069e-02  6.1054747512786969e-04 2.3560938555397965e-04 2.1821736628750366e-02  2.0497378212455761e-04 2.4600924682991417e-03 8.4246856050358310e-02  -1.3983862123999025e-03 4.3136306576299025e-03 6.2860253864744767e-02  -3.5580528580311463e-04 -7.5813905796813465e-04 1.5372953998638186e-01  9.3207736779017181e-05 -4.9145174129234886e-04 1.0397485600315595e-01  1.4480863233440845e-04 -1.6446162740084828e-03 1.6344146634395434e-01  6.5775516204012903e-04 -5.0165643423738556e-05 2.1911692705008583e-02  5.7857766642418790e-04 -4.0044787256464200e-05 2.2568387186259201e-02  -1.0274469302112210e-03 -4.9960412893924942e-04 1.1810245834073556e-01  1.3585840958539321e-03 6.7356765773421987e-04 9.3806263699842213e-02  2.9368137206447315e-04 2.6386477774028027e-04 1.0624265723369188e-01  1.3072287882166800e-03 1.3033070837480680e-03 1.0210611886738262e-01  9.8418500279578340e-04 1.7671927015954466e-03 1.6061707600293601e-01  -3.3542359806086887e-05 1.7667715661175064e-04 2.5406588224476827e-02  -1.4015162068271593e-05 2.4455502135177520e-04 2.5339991220366172e-02  -2.4653078483495449e-05 5.2608745884429075e-04 2.4786842618025898e-02  1.3719358666209117e-04 -4.7511947877340517e-04 9.0209003309469474e-02  1.5604229472312525e-04 -1.4038201327280168e-04 1.6822742737096380e-01  5.1398703103851912e-04 -6.5354916246980303e-04 1.7112075617053676e-01  3.7035846409314375e-05 -1.9659547660090763e-03 1.3800730707100756e-01  -6.9013211213295113e-04 -3.4406650778957880e-04 1.4783885545395628e-01  -1.0190488071794483e-03 -4.7039906301946273e-04 1.5706066674181357e-01  -1.1557650612451437e-03 5.2912932377665168e-04 1.4775290571305594e-01  2.2158630693755311e-04 1.7841910081350110e-03 2.0668427351822817e-02  6.8595504022709192e-05 1.6077490320300974e-03 2.1319467600954749e-02  -1.8613381023677657e-03 -2.9867576835793195e-04 6.2866440530297052e-02  1.0207296632636571e-03 -1.3598946588809716e-03 8.5377569191929015e-02  3.2402820636925743e-05 -6.6426622821989291e-04 1.3327427143577886e-01  7.0573869920241919e-04 -1.6491076670470694e-03 1.4277880250582847e-01  -9.6782461499068603e-04 1.4361530904160929e-03 1.7132247596433264e-01  1.2398516287346350e-03 1.0031358145310501e-03 1.5020983043196465e-01  -5.2756675877788364e-03 1.0712538446952240e-03 1.3172917186911759e-01  -5.5444217528716833e-03 4.0782779125248239e-03 1.3504125004863504e-01  -1.5320339427858940e-02 1.2000833167129348e-02 1.3912960821370979e-01  -2.9908799410150488e-05 -5.0944779121359421e-04 1.7210281094619778e-01  4.2893908238654971e-04 -1.1028873728921502e-03 1.6019991158531230e-01  5.1492863818279480e-04 -8.7459656240991784e-04 1.4814801047470261e-01  -6.4588018869767331e-04 -8.4757932370431823e-04 1.7541340033125491e-01  3.0362961368221998e-04 -1.7344948878472626e-03 1.5342486172818987e-01  4.4640431524762658e-04 -5.1601034136129331e-04 1.5511614783404787e-01  3.5702931839482361e-04 -6.4304033577274825e-04 1.7099007483815953e-01  -7.5377290178929747e-05 9.1879141455663283e-05 1.4541679830683998e-01  -3.0410906907777372e-04 -5.2854321350220672e-04 1.4709848017562338e-01  1.0575379115123620e-03 -3.6920408480909869e-04 8.4265582334809602e-02  4.0404548127563936e-04 -1.1991769430660787e-03 1.1291684626855637e-01  7.4190118353785830e-05 -9.5430735959342833e-04 1.1720437765669177e-01  5.5840321533418555e-04 3.6901714765508311e-04 7.0399598954183823e-02  -8.5829086223796448e-05 -6.5823275740425002e-04 8.8118362336754866e-02  1.7405686872003378e-04 -1.3829305119828765e-03 1.1383820158485586e-01  -1.5570030526511754e-04 8.4673564345802378e-04 8.7374870848566683e-02  -9.5082012109041602e-05 -7.7610323848451522e-04 8.1861236824766065e-02  1.0001022174691137e-02 -6.1655117399920332e-03 7.8817946194924757e-02  9.3107699325783600e-03 -6.1741888589943597e-03 8.7772988969990542e-02  2.7652272398790102e-03 -3.3181026874360368e-03 6.6509787303886861e-02  1.3600390291818532e-02 -1.8169673690752033e-02 1.2735150190907921e-01  -2.0290960144626845e-02 -1.3461334317840853e-02 1.3336043159679342e-01  -1.3605907702951277e-02 -2.7208887961276101e-02 1.3015358081365719e-01  2.4190799437637237e-04 5.7324522476729918e-04 2.0975994604103251e-02  -1.1479366869204656e-03 1.1377782477351333e-03 2.0971464692046190e-02  1.6013941668096339e-04 3.4483492684471710e-04 2.0310351299443127e-02  -4.4939196010956020e-03 5.8472376104263396e-03 8.0328891822658455e-02  2.2461774355623152e-03 -1.8975625308174572e-02 1.2457306898746090e-01  1.8913014963572313e-03 -3.5937406983493687e-02 1.2998828350483341e-01  -2.3873895016729013e-03 -1.5714760279855407e-02 1.0435077481377954e-01  -1.1223504076469860e-02 -8.1011483827174990e-03 7.1466676895329817e-02  1.2097823813835088e-02 6.6527309518783590e-03 1.3478763077166228e-01  1.7808228683510154e-02 7.7776351463626310e-03 1.3345466331594602e-01  2.0025171664462858e-02 9.6600763209140003e-03 1.1419648874059636e-01  7.0734186753171483e-03 4.1366157653242057e-03 1.0765366619800365e-01  -3.1197401758553814e-06 1.6840935719795492e-04 2.5475517232516676e-02  -5.1473113537675098e-05 1.8007504757274620e-04 2.5419291098193960e-02  1.3923993843179493e-04 -9.4795993393696851e-04 1.0809679300452422e-01  5.6567673869454844e-04 1.3878134131427827e-03 2.2035421800834648e-02  -1.4045452943129036e-03 2.2962782830316165e-03 2.2986292579517422e-02  -1.6965617851348509e-03 4.0462827628308211e-03 6.8082564738830509e-02  -7.9390432160834656e-06 5.3291071633072753e-04 1.6795234234549522e-01  9.3