<?xml version="1.0"?>
<VTKFile type="UnstructuredGrid"  version="0.1"  >
<UnstructuredGrid>
<Piece  NumberOfPoints="857" NumberOfCells="3763">
<Points>
<DataArray  type="Float64"  NumberOfComponents="3"  format="ascii">-0.0182597916573 0.126128911972 -0.119588643312  -0.0077641364187 0.0512270443141 -0.07050477713349999  -0.0237180162221 0.16240182519 -0.053058128804  -0.107877351344 0.105669431388 -0.0502408407629  -0.0444478429854 0.116080775857 -0.00235075876117  0.0393674038351 0.112876079977 -0.0491501875222  0.0248903874308 0.0489483103156 0.000152088920004  0.0314915925264 0.114928804338 0.0218031276017  -0.0657326281071 0.0685198307037 0.0497140102088  -0.0355357266963 0.164656624198 0.0508319064975  -0.010538729839 -0.0422629192472 -0.208358153701  -0.0239527057856 0.0135364839807 -0.242119863629  -0.0194642152637 -0.0775559768081 -0.263431429863  -0.08492307364939999 -0.0108216870576 -0.280446648598  -0.08293507993220001 -0.0361198186874 -0.159778758883  -0.0240796487778 -0.0824203491211 -0.148982465267  0.0430508553982 -0.121076337993 -0.234084427357  0.0307756774127 0.0324950888753 -0.198437720537  0.00352357281372 -0.00433266581967 -0.144715368748  -0.0456651262939 0.08372022956609999 0.342343091965  -0.116630032659 0.0117083769292 0.386158525944  -0.08223126828669999 0.0577075146139 0.289406776428  -0.0511222109199 0.00205342215486 0.300772219896  -0.0125984866172 0.0267426930368 0.351842552423  0.0303636882454 0.0561947338283 0.391145974398  -0.0524924062192 0.0543583929539 0.40361738205  -0.07944945245979999 0.130002260208 0.441037595272  -0.000730989675503 0.119443200529 0.385622620583  -0.078488714993 0.137875169516 0.332541137934  0.0142801422626 0.110509291291 0.27100610733  0.0224165506661 0.08303219079970001 0.331783413887  -0.0170432701707 0.161798536777 0.30022162199  0.000811119796708 -0.0515509881079 -0.08419398218390001  0.0888616070151 -0.015075173229 -0.0776951387525  -0.0989535748959 -0.0518730916083 -0.08125374466180001  -0.0433920919895 -0.09785594791170001 0.0106235472485  -0.0488061010838 0.0295096840709 -0.0131453983486  -0.25 0.25 0.5  -0.166666666667 0.25 0.5  -0.25 0.195066730511 0.445658150344  -0.19506166517 0.25 0.445542865294  -0.0213422998786 -0.126349791884 -0.045622177422  -0.117952652276 0.0158270020038 -0.16616243124  -0.0531469397247 0.0490713231266 -0.13630309701  0.0358348339796 -0.131537660956 -0.134171053767  0.0583617314696 -0.115307979286 -0.0462360456586  0.010585160926 -0.0606908276677 0.314250290394  0.078067921102 -0.133790805936 0.331458956003  0.0206208750606 -0.104583717883 0.36723652482  0.0300164371729 -0.13569638133 0.270959883928  0.0797956883907 -0.07311873137949999 0.388136893511  0.0291880238801 -0.0850581228733 0.220644980669  0.0788302049041 -0.07555303722620001 0.284453928471  -0.0465739220381 -0.108428947628 0.305151432753  -0.056692365557 -0.0812899768353 0.234353885055  0.10282895714 0.0630551427603 -0.0452189296484  0.178613707423 0.153893724084 -0.0703043565154  0.0750898644328 0.130835875869 -0.116260357201  0.0179002508521 -0.0400723591447 0.396018892527  0.07961820065980001 -0.020668130368 0.232235535979  -0.00726175494492 -0.022667773068 0.242156982422  0.0524490773678 0.0171752162278 0.310696065426  0.0103002395481 0.0813155695796 0.107229083776  0.00225681974553 -0.008687185123560001 0.0457225777209  0.177950121638 0.25 0.0405701099774  0.151375159621 0.202163234353 -0.00268407491967  0.13042794168 0.172564610839 0.0599601529539  0.184557154775 0.16295710206 -0.00737970136106  0.0827306732535 0.011830884032 0.0299163535237  0.106673434377 0.0676268041134 0.0663062110543  0.25 0.25 0  0.25 0.177947182503 0.0435581305687  0.0251978598535 -0.0201241951436 -0.0233656335622  -0.25 -0.25 0.25  -0.175495340629 -0.25 0.295351832328  -0.25 -0.175776260788 0.294629825204  -0.164853364229 -0.189889326692 0.246240898967  0.111295968676 0.25 -0.00354384794953  0.0417815256417 0.25 0.0264120515999  0.0577150444892 0.25 -0.0418173710713  0.035034801811 0.196921139956 -0.0497792549431  -0.115254960954 0.0352221727371 -0.0357825122774  0.0360979661345 0.0743419006467 -0.130612716079  0.08110298216340001 0.0143552683294 -0.135737240314  0.0281950440258 0.110801942647 -0.38559025526  -0.000352636008756 0.154027625918 -0.45018479228  0.0220217909664 0.07910815626379999 -0.445265561342  -0.041934799403 0.09297795593740001 -0.440330862999  -0.115356497467 0.128115877509 0.0303980205208  -0.08144567906859999 0.192924261093 -0.0396481454372  -0.0503155887127 -0.140062868595 0.370642662048  0.0181560348719 -0.191118896008 0.319997102022  -0.09442232549189999 -0.0766885429621 0.347179293633  -0.10306725651 -0.0245223585516 0.261891931295  -0.0371639840305 -0.192689821124 0.258922994137  -0.08778057992460001 -0.193450272083 0.293951839209  -0.116932563484 -0.137108251452 0.278956532478  -0.0434515699744 -0.19969072938 0.340430229902  -0.016621209681 -0.143479332328 0.208528921008  -0.0799133181572 -0.177766740322 0.206858798862  -0.0340202823281 -0.07231882214550001 0.405357718468  -0.153045728803 -0.0703692808747 0.28540495038  -0.0647673308849 -0.069349065423 -0.297796696424  -0.0468406006694 -0.118580199778 -0.331259429455  -0.0636249184608 -0.122360698879 -0.235275790095  -0.137311711907 -0.115820750594 -0.279358655214  -0.25 -0.25 0.333333333333  -0.00222280388698 -0.0275516584516 -0.327156513929  0.0233143884689 -0.124395690858 -0.330935031176  -0.00544846989214 -0.0444226972759 -0.392852008343  -0.07202984392639999 -0.0450558848679 -0.379192590714  -0.128861442208 -0.0482712239027 -0.325591087341  -0.0319190612757 0.25 0.27473160228  0.0259018652141 0.196524605155 0.343851953745  -0.0424101948738 0.196461260319 0.324036180973  -0.08801463991400001 0.193724930286 0.280150324106  -0.051391992718 0.129726842046 0.244459152222  0.0793330296874 0.131078347564 0.273738384247  0.0304427426308 0.197590425611 0.258007407188  0.139736711979 -0.103549621999 0.308288753033  0.117407329381 -0.00031748006586 0.284001767635  0.17845864594 0.0137020656839 0.2717012465  0.133446916938 -0.07468281686309999 0.252671837807  0.193237304688 0.0103836003691 0.32706490159  0.108656100929 -0.016409387812 0.370573759079  0.195593327284 -0.0705924406648 0.374003827572  0.204297035933 -0.0882691517472 0.283604085445  0.15987212956 -0.0232784096152 0.211559042335  0.103109702468 -0.0715631917119 0.185957938433  0.25 -0.177950121638 0.0405701099774  0.25 -0.111295968676 -0.00354384794953  0.168315500021 -0.181550845504 -0.0129796266556  0.203061833978 -0.0839376300573 0.0201103240252  -0.123973377049 0.0421161539853 0.0831994190812  0.10652089864 0.041568480432 0.133020982146  -0.00508088478819 0.00464248098433 0.118765294552  0.0384838804603 0.0542355030775 0.219570666552  0.0556482039392 0.09942726045850001 0.165778696537  0.25 -0.25 0  0.25 -0.17904445884 -0.0421267671166  0.0085972994566 0.139411628246 0.206887423992  -0.0427397117019 0.0734880268574 0.199836358428  0.25 -0.25 0.166666666667  0.177338154858 -0.25 0.209433902167  0.178222204231 -0.25 0.126578397361  0.180748909712 -0.154124230146 0.180074676871  0.118582360446 0.0498475395143 0.233844980597  0.113276541233 0.115120351315 0.208414897323  0.068451166153 0.123325429857 0.09300038218499999  0.08695217221980001 0.18308262527 0.11987875402  0.1366494596 0.0978636816144 0.125807240605  0.0170362386853 0.165571182966 0.116205818951  -0.075325883925 -0.13042730093 -0.120773427188  -0.191016584635 -0.1764793396 -0.0778442546725  -0.102759346366 -0.20253264904 -0.07015967369080001  -0.126150563359 -0.115044787526 -0.0573479756713  -0.138729035854 -0.104583211243 -0.134180948138  -0.147993162274 -0.138949289918 -0.203295826912  -0.180331096053 -0.192031860352 -0.160557568073  -0.194399222732 -0.0846866071224 -0.148938387632  -0.11259970814 -0.078034222126 -0.193649172783  0.0326924659312 -0.122268341482 0.0296003930271  0.0215157996863 -0.180560961366 -0.0757267251611  0.0956164896488 -0.0493310950696 -0.0164182558656  0.112129375339 -0.112067811191 -0.105549775064  0.127802968025 -0.106147237122 -0.0110959038138  -0.0854129120708 -0.015297700651 0.056893799454  -0.0204317308962 -0.0795602425933 0.117458000779  -0.178222204231 0.25 0.126578397361  -0.177947182503 0.25 0.0435581305687  -0.107976816083 0.25 0.0905854563709  -0.157577678561 0.178241759539 0.0969507619739  0.25 -0.25 0.333333333333  0.25 -0.25 0.25  0.175776260788 -0.25 0.294629825204  0.25 -0.175495340629 0.295351832328  0.0932372882962 -0.0430554822087 0.0724518448114  -0.044769000262 -0.00661279587075 0.403999477625  -0.194478780031 -0.0247275307775 0.332954645157  -0.173761367798 -0.0806607827544 0.396263659  -0.137637495995 0.00523930834606 0.315887242556  0.0864742994308 -0.139340251684 0.176064118743  0.105438224971 -0.136641919613 0.253711819649  0.0308670303835 -0.25 -0.136809572586  0.0367561832589 -0.25 -0.219583441074  0.0925811678171 -0.20055809617 -0.19996842742  0.0127155454829 -0.193433105946 -0.225977659225  0.0415658205748 -0.200880005956 0.196522325277  0.0373581312597 -0.119548290968 0.120048768818  -0.0954102815882 -0.25 0.346414074494  -0.101368582479 -0.25 0.251933327382  -0.0374909392175 -0.25 0.286229296012  0.0852289572358 0.109103307128 -0.27055695653  0.07707493752239999 0.127253636718 -0.199824258685  0.128097131848 0.07648140937090001 -0.209757223725  0.154867321253 0.13628205657 -0.212952241302  0.08678253740069999 0.189277544618 -0.274375885725  0.127699971199 0.0803090333939 -0.326344817877  0.0577741526067 0.0601542405784 -0.31936660409  0.0525139421225 0.129102528095 -0.326874881983  0.0251371748745 0.175572559237 -0.261228203773  0.0199144631624 0.0927290171385 -0.265960127115  -0.148952946067 -0.121583275497 -0.374568909407  -0.25 0.177950121638 0.0405701099774  -0.25 0.111295968676 -0.00354384794953  -0.175531774759 0.135734900832 0.0562076568604  -0.178730383515 0.191659659147 -0.00562386959791  -0.0244714934379 -0.108516678214 -0.387223660946  -0.09279609471560001 -0.170035287738 -0.445968538523  -0.0281062982976 -0.0
[...]
<PointData  Vectors="f_78"> 
<DataArray  type="Float64"  Name="f_78"  NumberOfComponents="3" format="ascii">-7.8558659669245704e-06 -1.0030082129686811e-05 -4.4584911724303089e-03  4.3056207047018130e-06 4.3418772341634148e-06 -3.8745038551971367e-03  1.6177244815703576e-05 -2.2326627359524582e-05 -3.7865608136349164e-03  3.7376597444545058e-05 -1.6673175714408641e-05 -3.5049223660861078e-03  2.7007218180889958e-05 -3.2106768169545308e-05 -4.2944464945803701e-03  -7.4946988679877546e-06 4.7299130698101609e-05 -4.0415726178953445e-03  5.6036956724747025e-06 1.9969524968994777e-05 -4.2541330404311977e-03  4.2682222209811080e-05 1.5020335453124668e-05 -3.8588464163080791e-03  6.7825690680947424e-06 -1.4551438209135518e-05 -3.8900818810321956e-03  -5.4567193611228017e-05 4.8237829611174767e-05 -3.4982317771865292e-03  -1.1657803634918428e-06 2.5591714148074237e-05 -3.9333670237478675e-03  -2.5910357878335212e-06 1.5795333845679055e-05 -4.0851946082794367e-03  -2.3129341235691542e-06 2.2809647575881446e-05 -4.0975620332612392e-03  -1.2753960672847114e-05 1.3450611354077243e-05 -4.3683260823153434e-03  1.2362308421154355e-05 1.3292948090159455e-05 -3.1332422880227034e-03  3.4572177644968024e-06 2.5136608832391259e-05 -3.4947223917178652e-03  2.8188618672211800e-05 -4.6343468219634442e-06 -3.1626889483865480e-03  5.5789589913166737e-06 1.3616185627428877e-05 -3.7667992175325223e-03  8.4466442604583166e-06 -1.7925940677996715e-05 -3.7376106817372042e-03  1.2357119996437262e-04 -2.2692324680131644e-04 -4.4194991186569709e-03  -1.9678600647713549e-04 -4.8709795593172198e-05 -4.0571865291114144e-03  -1.0916552924539576e-04 -1.2542197113671471e-05 -3.9282710619074285e-03  -1.6302069285273208e-04 -5.8279631514275967e-05 -4.0756377107651464e-03  -1.2998176133735511e-05 1.1417589009112952e-04 -4.5439687520297378e-03  5.9156546592801708e-05 7.1753676631972568e-05 -4.1886695597938683e-03  1.0643824103771698e-04 -4.3303608166607158e-05 -4.1503815538563773e-03  2.1351681583952638e-04 2.4910321727543482e-05 -4.0307726168964464e-03  -2.3908831582349373e-05 8.4213337054196444e-05 -3.6805624628348274e-03  -1.8866930225286889e-06 1.5909234496958797e-04 -4.1046248069067180e-03  -3.9644141097274505e-05 1.2252863398898341e-04 -4.7123153667082565e-03  6.4972777991123768e-05 3.6894426043195571e-05 -3.9488525879723098e-03  -2.1518043182053355e-04 1.5089207044810090e-04 -3.7857784752249740e-03  3.2941571201298032e-06 7.4558137395332443e-06 -4.0981140766647517e-03  -8.4487386162609145e-06 2.5491549040470928e-05 -4.1969139342152044e-03  -1.7686987775038387e-06 1.5527715940692941e-06 -4.2507487836352196e-03  1.4202495728080160e-05 3.0427638253958879e-05 -4.0231158547326248e-03  -2.3070672940842311e-06 2.8733343484525325e-05 -4.1339250454592883e-03  7.6851484012653789e-06 -3.2648259082274423e-06 1.7173233294057737e-05  7.4156241231979289e-06 -9.9266981497004176e-06 7.9488069482463106e-06  6.9067260771158190e-06 5.5920025702190211e-07 1.0504540664471206e-05  2.3925895113530577e-06 -2.0682166299881326e-06 4.3988371577265892e-06  -2.5661324230615176e-05 6.0166068995505042e-05 -4.0432439723293301e-03  -1.7553667082386335e-05 1.9124536208199402e-05 -4.2098180434646821e-03  3.7756713323159284e-06 2.0660984237623896e-05 -4.4711962034650861e-03  1.1959207091497835e-05 -6.3342618521860998e-05 -3.8654655631709762e-03  -2.6751205644100563e-05 -2.2615869592550128e-05 -3.9145994767094978e-03  3.8079458810492249e-05 4.5345296995613182e-05 -3.9888894960353220e-03  -7.7188295208806016e-05 3.5277685655759791e-05 -4.6052881309232218e-03  -1.0796950235577081e-04 -1.1938855759648625e-04 -4.4163327510461379e-03  3.8036702247921522e-05 1.1386610328769914e-04 -3.5756757766817818e-03  1.2378309901033333e-04 -2.0773334118861283e-04 -4.0717925593244100e-03  1.6356069688577802e-05 9.0919292851555334e-06 -3.8535561091508574e-03  1.5666346885760652e-04 -1.9684441356501314e-05 -3.7400741329280929e-03  -5.5709412393805280e-05 -1.3098332486931183e-04 -3.6056152733497677e-03  7.4827112708905560e-06 2.9858733637206541e-05 -3.9128098769758597e-03  -2.7172720960665659e-05 -3.6077906230131281e-06 -4.0324566025303141e-03  -1.5324450162752728e-04 -1.8777658588897309e-05 -2.7930403715141351e-03  2.1435881927982220e-05 1.4767710993737953e-05 -4.1243957694318120e-03  -1.0537452610377043e-05 -3.5726062247909948e-05 -4.0534882807922714e-03  -4.4625022806426168e-05 -2.4103950956498008e-05 -4.4740451895071221e-03  -1.3699276661176589e-05 1.2214543698632611e-06 -3.9315621265231917e-03  9.8601957634154768e-05 2.9902634276546930e-05 -3.8659550670318522e-03  1.3095190202919693e-05 1.4975051336138663e-05 -4.0551767997407959e-03  2.4783127771610990e-06 2.7293292280954881e-06 -4.2356709525440883e-03  -2.9265337753464950e-06 -5.5338978741686174e-06 -1.7829581127474681e-07  -1.1640878558767400e-04 7.8037271493345056e-05 -5.2261142848379523e-03  4.5390786460241634e-05 -1.9855377906028806e-04 -3.7582742781066304e-03  -1.5524314554695682e-04 5.4547542675120198e-05 -2.6897398908262578e-03  -8.8638812175502630e-06 1.5516692601843019e-05 -4.0198533116824033e-03  -1.5692356867989879e-05 -2.0754418823175870e-05 -3.7768627047004202e-03  -2.8878304598866493e-06 -1.7085825594942418e-06 -2.3005162036500506e-06  -2.6926484262271530e-06 -7.8739920547080687e-09 -1.2287017917146835e-07  2.3939840000883503e-05 1.5152043574995437e-05 -4.3840470181381727e-03  3.5546828725990210e-06 4.8768832070629968e-06 -8.3217400557511800e-07  1.9500343954267868e-06 2.0602185833252428e-06 3.3505976266656318e-06  -5.2746259030866056e-06 -1.4192934679812083e-06 5.4204862714746306e-06  -2.8278296289880877e-05 -2.7399583205072668e-04 -2.5047336658150861e-03  -5.5462812549896192e-07 1.1627381728424830e-06 1.3127449784921865e-06  -1.0707507699185469e-06 -3.9815083416554989e-06 6.2224955689304426e-08  1.2464491801765538e-07 8.3576614803149485e-06 1.2216434065001204e-06  -4.8865318063825393e-05 1.9465532760034712e-04 -3.8426241111687467e-03  -6.7246228407426625e-05 -4.4033476518583859e-05 -3.7793508442854054e-03  1.4106524996403593e-05 -1.0459837621425599e-05 -4.3674056329680785e-03  3.0946051023084681e-05 -1.1717031998081917e-05 -3.7629716369003896e-03  -1.9261573249919671e-06 -4.2440528363473545e-05 -3.4645085185773090e-03  -9.2828099208164930e-05 -1.9004661974430558e-06 -3.0355864199433074e-03  7.7769662481568034e-06 -2.3680616459420383e-05 -3.9377681759829005e-03  3.3840646052036238e-05 -5.7995819852433938e-05 -4.2075727404319533e-03  -1.4424297071278654e-04 -4.4091658558886679e-05 -4.4435785902900990e-03  -2.3802852897483582e-05 -2.0883175910356449e-04 -3.1188403008611467e-03  8.1121477665192757e-05 -1.3649617056381072e-04 -3.7689474845773239e-03  -3.9413808308019515e-06 1.3199254830334136e-04 -3.1850822749372666e-03  -1.7459440195033684e-04 -2.5569854081706832e-05 -3.9015557305901718e-03  9.4764533034970020e-05 -1.2347675613768162e-04 -3.7974203314380729e-03  -1.0782067022393018e-04 2.6996793415113818e-05 -3.4579956441015145e-03  -2.7517709718671999e-05 -3.5302761611798613e-05 -2.0964549370271293e-03  1.2845471855565523e-04 -7.2401497111809995e-05 -4.5914328051689900e-03  2.1089028949774653e-04 3.5378116881084793e-05 -3.9908942991183291e-03  8.8243149750528305e-06 -1.9199302400641847e-05 -3.9749243750751223e-03  5.0833632026270420e-07 1.8064428987412445e-04 -3.7888513154395679e-03  -1.2672833480851701e-04 1.9207305648527801e-04 -4.2078301668452148e-03  1.3389931078367448e-05 -2.0186268402294320e-05 -2.6069817355016179e-03  1.9490114009085946e-05 1.1751303779058979e-05 -3.1608473118917512e-03  4.1045249433805314e-05 2.7125687587878817e-05 -4.4949176265313088e-03  7.0399408105438563e-07 2.6179579682505589e-06 -3.4283379262122307e-03  -4.4012706635981809e-05 2.8875906407324726e-05 -3.4873477960581161e-03  9.1128255604656278e-07 -1.2379834089909983e-06 -5.3076963730920677e-07  2.2088636293308149e-05 1.9798402632126179e-05 -3.9765811993930870e-03  1.7295093177007288e-05 2.9017720422691219e-05 -4.6234764760264124e-03  2.3593841414351689e-05 3.7356327412438096e-05 -4.2503687779718215e-03  5.9080224813785819e-06 8.4397239182561474e-06 -4.2934892831116645e-03  4.8733975887326104e-05 2.7884973500503624e-05 -2.6710416970691011e-03  1.4249643700642979e-06 -2.2968962047049768e-06 8.9624484831624552e-07  6.8928937508696341e-05 1.6124124766207296e-04 -3.8478089547084936e-03  -2.8967932785015245e-04 1.2216014921828482e-04 -4.3844167515951372e-03  3.4127340342545939e-04 -2.5760215835587128e-04 -3.3170822441050646e-03  -1.4518429935148633e-04 2.8240230953045212e-05 -4.5362492133569519e-03  6.1271571988928759e-05 9.2931817514221339e-05 -3.5717720677122889e-03  7.6094396806220765e-06 5.6123957427092066e-05 -4.1770462723284031e-03  -1.8201112299924138e-05 -8.7672098416994308e-06 -4.1338103516466345e-03  -1.6321390449228764e-05 -1.0919236317069534e-05 -3.7343274303374458e-03  1.2931030114963517e-05 -2.1857889354030454e-05 -2.6187113855683933e-03  3.4533361283951740e-05 5.6804064581719835e-05 -3.7955406174491357e-03  -1.1307312112243930e-04 -7.0287673797102924e-05 -3.1291718918470498e-03  6.0242766736388292e-05 7.5907650548687284e-05 -4.0419417704856374e-03  3.8248287169114116e-04 -1.2595828024602979e-06 -3.7865743296184727e-03  2.1373000720672459e-04 -1.1858897925594431e-05 -3.5046837227942725e-03  -8.6832500890913122e-05 2.3638110045455564e-06 -3.7154019784815979e-03  3.3935283709742900e-05 -2.4193154484558914e-05 -2.7192433046691767e-03  2.5273449737808110e-06 -2.4131928890099708e-06 -2.1111108053240766e-06  2.1962337265394630e-06 -6.3740335334685217e-07 -5.6668656069285851e-07  -2.7871978180362360e-04 2.4745483339973955e-04 -3.7205151913168237e-03  9.6902461674177039e-05 -1.7858274354123091e-04 -2.6480254130944762e-03  4.4512980674637745e-05 2.3505949535813803e-05 -4.3003052395413832e-03  5.0384143081703118e-06 -1.3499858118238835e-05 -3.6638423402202075e-03  1.4317680130488816e-05 6.8921989462020204e-07 -4.0435691716373366e-03  -2.8966047976248134e-05 3.2702601303975043e-05 -4.3665283988663121e-03  -1.0321712748673058e-05 -4.3278339342480461e-05 -3.7955710567329848e-03  2.9007666039364753e-06 -6.8785741695486337e-06 6.6940797091328351e-06  -9.0921441330893057e-06 1.6207200675215074e-06 -8.8074823248555395e-07  -3.4807068264211748e-05 -2.3474586330685473e-05 -4.0392816280403164e-03  5.8716456823261150e-05 4.0325391387441727e-05 -3.7600415160801951e-03  8.4711366901507981e-06 -5.2445850455364789e-06 2.4281166494593331e-06  3.2803483113293745e-06 -3.8888408228540701e-06 1.5588832985607686e-06  -1.3321293410998914e-06 2.5291135808593261e-06 1.4156434111243305e-06  -1.4032640986633708e-04 1.7136824089392501e-04 -2.5006016396507151e-03  2.9126610488775806e-05 7.6637898614180088e-05 -4.1207405258241996e-03  3.0399661037107771e-05 1.0729648155688643e-05 -3.2618555901497009e-03  -7.5234626591522082e-05 7.5679887915499547e-06 -4.1580381659360802e-03  -3.5926323560402173e-05 -7.1904681109411420e-05 -4.0190732370070318e-03  2.7476000531443659e-05 -2.9691178789660879e-05 -3.1345393134854108e-03  2.1753183142961490e-05 -3.5794725460265370e-05 -2.5987295131607449e-03  -1.9767652607545710e-05 3.8063262958018198e-05 -3.8674005548667298e-03  6.3515532713946920e-05 -4.2248848221765286e-05 -2.6139543040261280e-03  2.8833653050565281e-05 -2.9302475280540112e-05 -4.1486757146446448e-03  -2.3907069687861638e-05 3.1089066225719922e-05 -3.9987793426586411e-03  3.3247328393787954e-05 -1.5851760729349104e-05 -3.0137964469767768e-03  5.9795617422312833e-05 7.2496503841349805e-06 -4.2774766475653188e-03  1.1172792607190369e-04 5.3791246040481209e-05 -3.4076202458231657e-03  1.0809476871264730e-04 1.4330338536405762e-04 -3.1571469240237204e-03  4.4395710602162844e-05 3.8243710748218404e-05 -3.5771249410423596e-03  -2.4622009291543547e-05 -4.0329897507856100e-05 -3.9220698341690301e-03  -1.1382689226158180e-04 1.1053631399574795e-04 -3.0919820663519349e-03  -1.9540402029198715e-05 -2.0606891845570721e-05 -4.0931452545857738e-03  2.7389244979114788e-05 -2.4568723769724040e-05 -3.4283633323074223e-03  8.4252917966991624e-05 -2.0220044551832123e-05 -4.3356965498856561e-03  3.9218016353729409e-05 -2.3280843088863697e-05 -3.7346728199350570e-03  -4.1807026723360968e-06 2.6295218648540473e-06 -4.1039094049549968e-03  9.6531793654141324e-07 -2.1854294030849421e-06 -1.5585703743483452e-06  5.4566970941640906e-07 -1.5044331717918819e-06 1.5683894774102919e-06  6.6940559013733704e-06 -2.8679597256455469e-06 8.2361016634837340e-07  -2.1998238162445435e-05 -9.8750995492990194e-05 -2.4352543851998984e-03  7.1704447051333974e-06 -5.5154646434882185e-06 5.0948365384990211e-06  -2.0510235897718510e-06 2.2122364355175438e-06 2.4364663330482991e-06  9.2417475654297341e-07 -2.9292105172918727e-07 2.9749814153306053e-06  -1.0972994632250206e-06 7.7769566670600983e-07 1.4640304890099798e-06  -3.0278260451710340e-05 -3.8230626161762987e-06 -3.7694608164110630e-03  -3.5740048388368257e-05 9.5137066859927921e-05 -3.8239138257858819e-03  1.8292079273012562e-04 -8.0160306294215433e-05 -3.7797275597712897e-03  -2.8441955968013042e-04 6.9607827643473801e-05 -3.3165734059623733e-03  1.0083124484713246e-04 -2.9674631956661074e-05 -2.8285818403418397e-03  8.3012247010734577e-05 1.7024638957030625e-04 -3.4067497699691836e-03  -7.7243564006684108e-05 -1.8703379499740056e-04 -3.6533118774037107e-03  7.5463307453970944e-07 4.8078663021353882e-07 1.0682728507083082e-06  1.6184394983229863e-06 5.9421776883004358e-06 3.3339864972374828e-07  1.7566700026128804e-05 -2.5733841555783511e-05 -3.3888174569500062e-03  -9.6789605425706690e-05 1.8388803704411774e-04 -1.7841554619225626e-03  -4.6086884511906764e-05 -6.1064000603381504e-05 -4.6429469398649404e-03  3.3386494838741551e-06 3.8731442281202587e-05 -4.0337589635909598e-03  -5.8524895756068854e-07 -2.5817581263496949e-06 3.2948638095420735e-06  -2.5147749478332745e-06 -4.9597653779531573e-06 3.9933920348394870e-06  -3.6387362148137846e-06 5.8753473677545707e-06 1.2251134798390512e-06  7.9440960353992021e-05 -4.9208943901095501e-06 -3.0140969443761072e-03  -4.0187998222635891e-05 -7.1883945356685460e-05 -3.1985947934708879e-03  1.5861343889939484e-05 -2.5715969393837280e-05 -3.7606019161735582e-03  -4.6053087888688422e-06 6.7607426273139452e-06 -2.4793023492557928e-03  7.8880535553804853e-05 3.2064442794017351e-06 -2.3679769054476062e-03  -2.6839405204408389e-05 1.9544516703884802e-05 -4.8776909998644574e-03  1.5439781949504458e-05 1.2694588524104383e-05 -4.2031575473052496e-03  5.4805857144365694e-06 1.1797696784465458e-06 -3.5085679123455656e-03  -4.9020011858040850e-05 -7.3617925995614615e-05 -2.3972540060461347e-03  -8.2858199159172730e-06 3.6485236450766552e-06 -4.4052714532081616e-03  6.6078861358649056e-07 -1.0521942886889996e-05 -3.9333645809497240e-03  2.7226268404417467e-06 5.7106631199237322e-07 2.6063631491432419e-06  -4.7197884186881128e-07 9.5821225680755082e-07 3.9765125529517755e-07  3.5329456635435863e-04 -1.8443161434382056e-04 -2.7239185018187468e-03  -1.2786250098818650e-04 3.0245021482339747e-05 -3.5258582583296660e-03  -3.3289451220312056e-05 6.3659126994341375e-05 -3.6612171860292116e-03  1.9932130714671155e-05 2.4657126391449174e-05 -4.0582952552976380e-03  9.2784009478344445e-06 5.3841164820547057e-05 -4.3716402944682740e-03  3.5515115115002993e-06 -4.8753838576203908e-06 -1.4566829260511139e-06  -6.3970372509941797e-06 2.2732355388449552e-06 3.6707090077382392e-06  -2.2974883388900697e-06 -5.9723720872681464e-05 -3.7758381083358127e-03  7.2798846248306310e-05 4.5295489053626967e-05 -3.0289447449588038e-03  -4.1322135241433336e-05 2.7611951756125494e-05 -3.3279723602110496e-03  -8.8735189217919636e-05 3.9004749747341699e-05 -4.4456241613137068e-03  1.2573481821432571e-05 -3.8959862299824332e-06 -4.0114478753052627e-03  -4.8768901823975149e-07 4.0941037919250212e-06 -3.7301010109925072e-06  4.5118795360001516e-07 4.2069804304920546e-07 -3.7019810360364234e-06  9.2050338410849593e-07 -3.3876604245296499e-06 1.8010657155512470e-06  1.7082405879211219e-05 6.0865516833066660e-05 -3.9596622982563294e-03  1.6941102734973255e-05 1.1156775740225773e-05 -3.8607895513038224e-03  2.3555046642348139e-07 2.3673474290825739e-05 -4.2609786777227038e-03  -1.1259049067910876e-05 2.4582921840713836e-05 -3.8381619517390718e-03  2.3619503254727345e-05 -2.6722481178567422e-05 -4.8073980452676092e-03  -5.5498031865299288e-05 -3.5019400647102183e-05 -3.9670903473013113e-03  4.1061863498108241e-06 -2.1859792058760012e-05 -3.8209417365834965e-03  -1.2827910645782461e-07 5.5155720778880552e-06 1.8723862682245044e-06  -2.0788546540224186e-06 -4.8113076111911446e-06 -9.7502629333290466e-07  -1.6514127999456543e-04 4.1040428959252173e-05 -3.1152969106607847e-03  7.1511952278926978e-05 6.7123343790446104e-05 -3.0932518724901101e-03  1.1207822941346769e-05 1.4394295606177047e-05 -2.4287808481393432e-03  6.7531337831083340e-05 -4.8315848992619324e-05 -3.7392003919800251e-03  -2.3536345517095471e-05 -2.9711841781171238e-05 -3.9496739236903082e-03  -5.7803347637134774e-06 -7.8398234786399839e-05 -3.3550154411874861e-03  9.5971446452834777e-05 -3.2014976855302522e-05 -4.5182281733718559e-03  -9.2158738593263435e-05 1.1266620556680146e-04 -2.5656787214019174e-03  -1.3167101507754664e-04 9.9317912567838785e-05 -2.5642044598432013e-03  3.5424634945310080e-05 9.4570222121956239e-07 -3.9732316712895030e-03  6.3446025974400069e-05 3.4287223133776320e-05 -4.7098384905409291e-03  6.8103999056958820e-05 -9.2329759253332077e-06 -3.9423883665163804e-03  -1.2128864489228066e-06 1.7317066025546484e-05 -3.8059517799465328e-03  2.0159765035183811e-05 -3.6154725991104920e-05 -4.1850347731464095e-03  2.2053787538478137e-05 -5.9441438322951010e-05 -4.4030766306998228e-03  1.8030258819698284e-05 6.5566117541649547e-06 -4.3030944149765162e-03  6.8272060238783977e-06 7.3580384112306913e-06 -3.6290037738718286e-03  -4.2896242797127188e-05 6.3236741636149566e-06 -4.0113900738480189e-03  4.7836294789698437e-05 4.5155782533179425e-06 -2.8807483563835405e-03  6.6004669565667966e-05 2.9948391355961522e-05 -3.6760396606128525e-03  -5.9762229358625188e-06 -9.0416676210857189e-05 -4.2624833013663000e-03  -7.5903376594330964e-05 -1.2985682537333305e-04 -4.2379930224452373e-03  -1.1040449852150023e-04 4.9085076787406966e-07 -5.2361252321079721e-03  -5.0377814263800818e-05 8.0928287750726616e-05 -2.4678509072169480e-03  8.3188334940696804e-05 -4.6349277685807596e-05 -4.4330391185505112e-03  -2.4965252575375788e-05 -1.2553277747837964e-04 -2.5468299336690462e-03  -1.1534449436101313e-05 1.2264109549965997e-05 -4.1502700889962749e-03  -1.0198419255028531e-05 1.5328664981132637e-04 -2.2785594165740455e-03  5.0152936355387754e-05 -2.1363542779434232e-04 -4.1579683048685962e-03  3.7759919591241665e-05 6.4772969383815118e-05 -3.0004017207941663e-03  -1.1704942278851367e-04 -8.3242646895964401e-06 -3.8291344399604054e-03  -1.4460604338837065e-04 7.7584224663687672e-05 -3.7597483901689855e-03  2.9024000757444360e-06 9.5394965074051897e-07 -2.7108956746205403e-07  -8.6412127781373408e-07 -1.0515825000078695e-05 -1.8847422855355043e-06  -2.2011947321707205e-06 1.1696277781950977e-05 1.1608807033700274e-06  1.5943983363213315e-04 -9.9092082392840820e-05 -3.6483900601114111e-03  -1.4175834639336879e-04 -6.1725314821566531e-05 -3.5411553502050809e-03  9.6263694774654553e-05 6.8866188873008312e-05 -4.3424106401758825e-03  -1.1099523629183609e-04 -2.8749750434763587e-04 -3.5697331398922031e-03  -2.9873703217547180e-04 4.4359405395272365e-05 -4.4479747370635590e-03  -2.3261618306709756e-05 -5.5471057816378249e-05 -4.2337811642421657e-03  1.1451172969518523e-04 8.1286057365449502e-05 -3.4717480306631172e-03  2.5684134888316943e-04 -1.0976180142642642e-04 -3.6107490453341196e-03  3.2008643782940412e-05 -2.5195615025373679e-05 -4.0058864764356238e-03  2.1402195150629346e-06 6.4195251504506784e-06 -4.7666345212724799e-06  -3.2963318519186438e-07 3.8573845758463530e-06 -4.8269170119869834e-06  4.6342605174565467e-05 1.6196025800124328e-04 -4.7366937882846703e-03  1.0663362937474040e-06 2.2839713450844447e-06 -1.9046009387115575e-07  -3.1