<?xml version="1.0"?>
<VTKFile type="UnstructuredGrid"  version="0.1"  >
<UnstructuredGrid>
<Piece  NumberOfPoints="857" NumberOfCells="3763">
<Points>
<DataArray  type="Float64"  NumberOfComponents="3"  format="ascii">-0.0182597916573 0.126128911972 -0.119588643312  -0.0077641364187 0.0512270443141 -0.07050477713349999  -0.0237180162221 0.16240182519 -0.053058128804  -0.107877351344 0.105669431388 -0.0502408407629  -0.0444478429854 0.116080775857 -0.00235075876117  0.0393674038351 0.112876079977 -0.0491501875222  0.0248903874308 0.0489483103156 0.000152088920004  0.0314915925264 0.114928804338 0.0218031276017  -0.0657326281071 0.0685198307037 0.0497140102088  -0.0355357266963 0.164656624198 0.0508319064975  -0.010538729839 -0.0422629192472 -0.208358153701  -0.0239527057856 0.0135364839807 -0.242119863629  -0.0194642152637 -0.0775559768081 -0.263431429863  -0.08492307364939999 -0.0108216870576 -0.280446648598  -0.08293507993220001 -0.0361198186874 -0.159778758883  -0.0240796487778 -0.0824203491211 -0.148982465267  0.0430508553982 -0.121076337993 -0.234084427357  0.0307756774127 0.0324950888753 -0.198437720537  0.00352357281372 -0.00433266581967 -0.144715368748  -0.0456651262939 0.08372022956609999 0.342343091965  -0.116630032659 0.0117083769292 0.386158525944  -0.08223126828669999 0.0577075146139 0.289406776428  -0.0511222109199 0.00205342215486 0.300772219896  -0.0125984866172 0.0267426930368 0.351842552423  0.0303636882454 0.0561947338283 0.391145974398  -0.0524924062192 0.0543583929539 0.40361738205  -0.07944945245979999 0.130002260208 0.441037595272  -0.000730989675503 0.119443200529 0.385622620583  -0.078488714993 0.137875169516 0.332541137934  0.0142801422626 0.110509291291 0.27100610733  0.0224165506661 0.08303219079970001 0.331783413887  -0.0170432701707 0.161798536777 0.30022162199  0.000811119796708 -0.0515509881079 -0.08419398218390001  0.0888616070151 -0.015075173229 -0.0776951387525  -0.0989535748959 -0.0518730916083 -0.08125374466180001  -0.0433920919895 -0.09785594791170001 0.0106235472485  -0.0488061010838 0.0295096840709 -0.0131453983486  -0.25 0.25 0.5  -0.166666666667 0.25 0.5  -0.25 0.195066730511 0.445658150344  -0.19506166517 0.25 0.445542865294  -0.0213422998786 -0.126349791884 -0.045622177422  -0.117952652276 0.0158270020038 -0.16616243124  -0.0531469397247 0.0490713231266 -0.13630309701  0.0358348339796 -0.131537660956 -0.134171053767  0.0583617314696 -0.115307979286 -0.0462360456586  0.010585160926 -0.0606908276677 0.314250290394  0.078067921102 -0.133790805936 0.331458956003  0.0206208750606 -0.104583717883 0.36723652482  0.0300164371729 -0.13569638133 0.270959883928  0.0797956883907 -0.07311873137949999 0.388136893511  0.0291880238801 -0.0850581228733 0.220644980669  0.0788302049041 -0.07555303722620001 0.284453928471  -0.0465739220381 -0.108428947628 0.305151432753  -0.056692365557 -0.0812899768353 0.234353885055  0.10282895714 0.0630551427603 -0.0452189296484  0.178613707423 0.153893724084 -0.0703043565154  0.0750898644328 0.130835875869 -0.116260357201  0.0179002508521 -0.0400723591447 0.396018892527  0.07961820065980001 -0.020668130368 0.232235535979  -0.00726175494492 -0.022667773068 0.242156982422  0.0524490773678 0.0171752162278 0.310696065426  0.0103002395481 0.0813155695796 0.107229083776  0.00225681974553 -0.008687185123560001 0.0457225777209  0.177950121638 0.25 0.0405701099774  0.151375159621 0.202163234353 -0.00268407491967  0.13042794168 0.172564610839 0.0599601529539  0.184557154775 0.16295710206 -0.00737970136106  0.0827306732535 0.011830884032 0.0299163535237  0.106673434377 0.0676268041134 0.0663062110543  0.25 0.25 0  0.25 0.177947182503 0.0435581305687  0.0251978598535 -0.0201241951436 -0.0233656335622  -0.25 -0.25 0.25  -0.175495340629 -0.25 0.295351832328  -0.25 -0.175776260788 0.294629825204  -0.164853364229 -0.189889326692 0.246240898967  0.111295968676 0.25 -0.00354384794953  0.0417815256417 0.25 0.0264120515999  0.0577150444892 0.25 -0.0418173710713  0.035034801811 0.196921139956 -0.0497792549431  -0.115254960954 0.0352221727371 -0.0357825122774  0.0360979661345 0.0743419006467 -0.130612716079  0.08110298216340001 0.0143552683294 -0.135737240314  0.0281950440258 0.110801942647 -0.38559025526  -0.000352636008756 0.154027625918 -0.45018479228  0.0220217909664 0.07910815626379999 -0.445265561342  -0.041934799403 0.09297795593740001 -0.440330862999  -0.115356497467 0.128115877509 0.0303980205208  -0.08144567906859999 0.192924261093 -0.0396481454372  -0.0503155887127 -0.140062868595 0.370642662048  0.0181560348719 -0.191118896008 0.319997102022  -0.09442232549189999 -0.0766885429621 0.347179293633  -0.10306725651 -0.0245223585516 0.261891931295  -0.0371639840305 -0.192689821124 0.258922994137  -0.08778057992460001 -0.193450272083 0.293951839209  -0.116932563484 -0.137108251452 0.278956532478  -0.0434515699744 -0.19969072938 0.340430229902  -0.016621209681 -0.143479332328 0.208528921008  -0.0799133181572 -0.177766740322 0.206858798862  -0.0340202823281 -0.07231882214550001 0.405357718468  -0.153045728803 -0.0703692808747 0.28540495038  -0.0647673308849 -0.069349065423 -0.297796696424  -0.0468406006694 -0.118580199778 -0.331259429455  -0.0636249184608 -0.122360698879 -0.235275790095  -0.137311711907 -0.115820750594 -0.279358655214  -0.25 -0.25 0.333333333333  -0.00222280388698 -0.0275516584516 -0.327156513929  0.0233143884689 -0.124395690858 -0.330935031176  -0.00544846989214 -0.0444226972759 -0.392852008343  -0.07202984392639999 -0.0450558848679 -0.379192590714  -0.128861442208 -0.0482712239027 -0.325591087341  -0.0319190612757 0.25 0.27473160228  0.0259018652141 0.196524605155 0.343851953745  -0.0424101948738 0.196461260319 0.324036180973  -0.08801463991400001 0.193724930286 0.280150324106  -0.051391992718 0.129726842046 0.244459152222  0.0793330296874 0.131078347564 0.273738384247  0.0304427426308 0.197590425611 0.258007407188  0.139736711979 -0.103549621999 0.308288753033  0.117407329381 -0.00031748006586 0.284001767635  0.17845864594 0.0137020656839 0.2717012465  0.133446916938 -0.07468281686309999 0.252671837807  0.193237304688 0.0103836003691 0.32706490159  0.108656100929 -0.016409387812 0.370573759079  0.195593327284 -0.0705924406648 0.374003827572  0.204297035933 -0.0882691517472 0.283604085445  0.15987212956 -0.0232784096152 0.211559042335  0.103109702468 -0.0715631917119 0.185957938433  0.25 -0.177950121638 0.0405701099774  0.25 -0.111295968676 -0.00354384794953  0.168315500021 -0.181550845504 -0.0129796266556  0.203061833978 -0.0839376300573 0.0201103240252  -0.123973377049 0.0421161539853 0.0831994190812  0.10652089864 0.041568480432 0.133020982146  -0.00508088478819 0.00464248098433 0.118765294552  0.0384838804603 0.0542355030775 0.219570666552  0.0556482039392 0.09942726045850001 0.165778696537  0.25 -0.25 0  0.25 -0.17904445884 -0.0421267671166  0.0085972994566 0.139411628246 0.206887423992  -0.0427397117019 0.0734880268574 0.199836358428  0.25 -0.25 0.166666666667  0.177338154858 -0.25 0.209433902167  0.178222204231 -0.25 0.126578397361  0.180748909712 -0.154124230146 0.180074676871  0.118582360446 0.0498475395143 0.233844980597  0.113276541233 0.115120351315 0.208414897323  0.068451166153 0.123325429857 0.09300038218499999  0.08695217221980001 0.18308262527 0.11987875402  0.1366494596 0.0978636816144 0.125807240605  0.0170362386853 0.165571182966 0.116205818951  -0.075325883925 -0.13042730093 -0.120773427188  -0.191016584635 -0.1764793396 -0.0778442546725  -0.102759346366 -0.20253264904 -0.07015967369080001  -0.126150563359 -0.115044787526 -0.0573479756713  -0.138729035854 -0.104583211243 -0.134180948138  -0.147993162274 -0.138949289918 -0.203295826912  -0.180331096053 -0.192031860352 -0.160557568073  -0.194399222732 -0.0846866071224 -0.148938387632  -0.11259970814 -0.078034222126 -0.193649172783  0.0326924659312 -0.122268341482 0.0296003930271  0.0215157996863 -0.180560961366 -0.0757267251611  0.0956164896488 -0.0493310950696 -0.0164182558656  0.112129375339 -0.112067811191 -0.105549775064  0.127802968025 -0.106147237122 -0.0110959038138  -0.0854129120708 -0.015297700651 0.056893799454  -0.0204317308962 -0.0795602425933 0.117458000779  -0.178222204231 0.25 0.126578397361  -0.177947182503 0.25 0.0435581305687  -0.107976816083 0.25 0.0905854563709  -0.157577678561 0.178241759539 0.0969507619739  0.25 -0.25 0.333333333333  0.25 -0.25 0.25  0.175776260788 -0.25 0.294629825204  0.25 -0.175495340629 0.295351832328  0.0932372882962 -0.0430554822087 0.0724518448114  -0.044769000262 -0.00661279587075 0.403999477625  -0.194478780031 -0.0247275307775 0.332954645157  -0.173761367798 -0.0806607827544 0.396263659  -0.137637495995 0.00523930834606 0.315887242556  0.0864742994308 -0.139340251684 0.176064118743  0.105438224971 -0.136641919613 0.253711819649  0.0308670303835 -0.25 -0.136809572586  0.0367561832589 -0.25 -0.219583441074  0.0925811678171 -0.20055809617 -0.19996842742  0.0127155454829 -0.193433105946 -0.225977659225  0.0415658205748 -0.200880005956 0.196522325277  0.0373581312597 -0.119548290968 0.120048768818  -0.0954102815882 -0.25 0.346414074494  -0.101368582479 -0.25 0.251933327382  -0.0374909392175 -0.25 0.286229296012  0.0852289572358 0.109103307128 -0.27055695653  0.07707493752239999 0.127253636718 -0.199824258685  0.128097131848 0.07648140937090001 -0.209757223725  0.154867321253 0.13628205657 -0.212952241302  0.08678253740069999 0.189277544618 -0.274375885725  0.127699971199 0.0803090333939 -0.326344817877  0.0577741526067 0.0601542405784 -0.31936660409  0.0525139421225 0.129102528095 -0.326874881983  0.0251371748745 0.175572559237 -0.261228203773  0.0199144631624 0.0927290171385 -0.265960127115  -0.148952946067 -0.121583275497 -0.374568909407  -0.25 0.177950121638 0.0405701099774  -0.25 0.111295968676 -0.00354384794953  -0.175531774759 0.135734900832 0.0562076568604  -0.178730383515 0.191659659147 -0.00562386959791  -0.0244714934379 -0.108516678214 -0.387223660946  -0.09279609471560001 -0.170035287738 -0.445968538523  -0.0281062982976 -0.0
[...]
<PointData  Vectors="f_104"> 
<DataArray  type="Float64"  Name="f_104"  NumberOfComponents="3" format="ascii">-1.0607835508926696e-04 -6.2457440141237646e-04 1.6282097498711207e-01  -5.0957781837308684e-04 -3.7544113987382781e-04 2.0442610769162983e-01  4.8952823143345310e-05 -3.2390099414772704e-04 1.2920641284852813e-01  -1.6189332816947337e-04 3.9137885527817788e-04 1.4825947078144472e-01  6.5695945417079519e-04 1.9005066515893673e-04 1.6461490051871569e-01  9.5928610427603264e-04 1.3403701372521424e-03 1.6869692472925105e-01  -1.0144072937032284e-04 3.3855205481878140e-04 2.0294878465476482e-01  8.0944258811289503e-04 5.4470382149658691e-04 1.6876052541581327e-01  2.9038432320703528e-04 5.6336183861956037e-04 1.8408906560402083e-01  -3.7836853789228076e-04 -2.0460232318423091e-04 1.2421099680862381e-01  6.5676629953196426e-04 -5.1545912124518292e-05 2.0766150641878212e-01  -2.6630633033221214e-05 -7.3161558362903507e-05 2.1158543757740109e-01  -1.0048061942844765e-04 -2.4367684599730204e-04 1.9498463439811567e-01  -1.5697743721688478e-04 7.3461712777829035e-05 1.9308003045948466e-01  -3.8771515696356341e-04 -6.9052004362785851e-04 1.8879815597000915e-01  1.3395450181211797e-04 1.7498610032152216e-04 1.9000674688944963e-01  2.2882186960807569e-05 -2.7847054460701488e-04 1.6663612124393759e-01  -5.9276708458649066e-05 6.1349173787319654e-04 2.0733801079607622e-01  2.2937325660897249e-04 2.0306752781138612e-04 2.1231538559994625e-01  -6.1878610355090282e-03 1.1876045884727141e-02 1.6063230382014859e-01  -1.7491824580146056e-02 1.4903856477496956e-03 1.3912036331418343e-01  -6.4283463586654859e-03 5.1962414411475056e-03 1.6712032195106571e-01  -3.1927055474968080e-03 7.7234305858064802e-04 1.7946452641640315e-01  -1.0529699090190570e-04 4.0031623275333141e-03 1.6863214442918414e-01  8.0933775299393673e-03 1.0785309173008599e-02 1.5247691884456469e-01  -1.1723461796594399e-02 1.1667280301972385e-02 1.4507376810644240e-01  -1.5296798201539027e-02 2.0147972399150092e-02 1.2095882804759871e-01  3.4614892015785253e-04 1.9452492183446086e-02 1.4240388644330670e-01  -1.0301932077911623e-02 1.4234726906785291e-02 1.3815041358926822e-01  -3.0040313986010882e-04 6.4240876012694632e-03 1.6677124075211588e-01  5.2421119008220843e-03 1.0982459071969247e-02 1.6746823140575212e-01  -2.2147375838173430e-03 9.3823844506058379e-03 1.2540080664044850e-01  4.7198496329680918e-04 1.3168419663657912e-05 2.0461623672108351e-01  1.7763334421587931e-04 -7.5038950813349227e-04 1.8885628509730248e-01  -9.5418790314183698e-05 -1.3998803192405688e-05 1.7705898603863246e-01  -1.2237023841934127e-03 3.2744464035075092e-04 1.7712025459472586e-01  4.4176918506426530e-04 -1.3153488347118416e-03 2.0128284824120601e-01  -1.2715711665843314e-02 9.4329507518821493e-03 1.2697558813243634e-01  -9.3388367976927449e-03 2.9062865931269717e-03 1.1717660515316600e-01  -1.0253264409427159e-02 1.0868923049292021e-02 2.0749652479138448e-02  -9.4163809099130445e-03 7.3539983871949797e-03 2.1121206607025936e-02  -9.4953414046474046e-04 8.1391188482079926e-05 1.6070859402380128e-01  -7.6249554576703646e-04 8.5907455448850614e-04 1.7237811572654460e-01  6.5742424594744458e-04 2.0801311503472608e-04 1.9657833277663797e-01  2.8274717033127520e-04 2.4980112002077209e-04 1.5716287092187842e-01  3.0625240482830127e-04 1.3550238348863071e-03 1.6125689728651463e-01  3.8998962281171874e-04 -5.4672814440934287e-03 1.7723856966307719e-01  8.4144905447333905e-03 -1.3257164586822880e-02 1.4222153664033102e-01  4.2947671902317719e-03 -1.6999079422110108e-02 1.5196089008572619e-01  1.7888744110747862e-03 -5.5054007541396766e-03 1.4548604314753830e-01  1.3297732311326332e-02 -1.4082420068480020e-02 1.4815437809962254e-01  1.7717494701588675e-03 -2.8586323791998658e-03 1.7705595713579914e-01  6.0398850071983800e-03 -4.6230219039969586e-03 1.6690579317188839e-01  -4.8827937801145449e-03 -9.0343228897843738e-03 1.5619629712029809e-01  -3.0021744719097299e-03 -2.8137160594929466e-03 1.7429965777280040e-01  -1.7845259698457034e-05 6.1629604413893655e-04 1.7213516216942221e-01  -6.9072667671524874e-04 -6.1596237739138622e-05 7.6335181081686299e-02  8.9593851754099030e-04 8.4607601919337787e-04 1.4864033855205239e-01  6.4235192244315618e-03 -6.0909052281668576e-03 1.4901756801426966e-01  3.2676109146721191e-03 7.8170894780731418e-04 1.7962054249634704e-01  4.1588935708995425e-04 7.1190283870374896e-04 1.8828818463417932e-01  5.1682431806041786e-03 3.3268426488465195e-03 1.7588542739282118e-01  2.3953522487763675e-04 2.2377426360999609e-03 1.8666126009564488e-01  -5.9504786635438225e-04 -6.1934191142558467e-04 2.0964639530155363e-01  6.0388172181502530e-04 2.5518680606956544e-04 2.7155545167132901e-04  -1.4803262799071733e-03 -1.0838788342435750e-03 5.8856351500883690e-02  1.2158049332784845e-03 -2.6355792830963298e-04 9.4236803513200268e-02  6.4875551646663204e-04 1.9170850346452185e-04 7.1548179098315151e-02  3.9383956004162006e-04 9.2146536709119045e-04 1.9116366476144062e-01  9.6059144771595156e-04 2.0238886854104039e-03 1.6289439269725134e-01  4.4955901259500792e-04 1.5040923873411603e-04 -1.7558871876466702e-04  5.4769477651362786e-04 1.7148683275158396e-04 3.1562738762814710e-04  8.5561726767850670e-05 8.2423555397234541e-04 2.1119220823128990e-01  -1.4829806445157921e-03 -2.2964694197004009e-03 8.0095990309327798e-03  -2.6254673970842498e-03 -2.1401935004194874e-03 1.1926904395817717e-02  -1.1190776474846805e-03 -3.7079439217083854e-03 1.0929015591900659e-02  -4.0256205866578106e-03 -3.3081578653845526e-03 6.9460378709337287e-02  2.7669835914234821e-04 2.2133222678372269e-04 -6.0652674939286669e-04  1.6894479022591438e-04 1.3342626275120761e-04 -2.3530000318633664e-04  1.4850637345832667e-04 1.1799913521046712e-04 -9.6986114429823225e-04  2.2274321453617510e-03 -2.2628218607404498e-06 8.9673181176812639e-02  -3.6429098805293962e-04 2.9442422281641011e-05 1.7089675681720540e-01  1.9619623844299903e-04 5.2535466765665870e-04 1.9158721096111678e-01  9.6894140153481209e-04 2.6815467192811199e-04 1.9424017024855530e-01  1.0175509206068104e-04 2.4526411054766372e-04 1.7499199916317740e-01  -9.9376049952641245e-05 2.6922508659669959e-04 1.3987047464659630e-01  -6.9611731643827420e-06 3.0245039976228892e-04 1.9349023961991962e-01  -3.9740053952717174e-05 2.8374123374763768e-04 1.8364045896053957e-01  -3.1730325516122609e-04 5.6495608022015227e-04 1.3294378822177458e-01  -7.0551969383790916e-04 -9.5408692628974254e-04 8.6560436652108039e-02  -7.3027484672705759e-03 -1.7387040789592079e-02 1.2952771349436978e-01  9.0146308165555691e-04 -7.4898534833319772e-03 9.5844887045133415e-02  -1.3195164293923724e-02 -1.0149302247443153e-02 1.5451912779319987e-01  -7.8364216420193557e-03 -1.0202019491857013e-03 1.6860805882353408e-01  6.0764358468514180e-07 -4.4268550692649769e-03 9.4033346929245892e-02  -4.6574562246209286e-03 -6.0615568682769868e-03 8.5652717456516633e-02  -6.0363295419724600e-03 -4.7711579220550164e-03 1.2796662939731823e-01  -6.4945165349559976e-03 -8.9457053654043110e-03 8.7691463178965118e-02  -2.5410421533182060e-05 -3.6944266734581653e-03 1.4054032506071087e-01  -2.9307947285719216e-03 -1.7626401547878197e-03 1.0369632432888849e-01  -6.1624283483284036e-03 -1.4270042877644216e-02 1.4262052644650250e-01  -7.8372662668035487e-03 -5.6651558517100027e-03 1.3183931641458219e-01  -2.7108637156468053e-04 6.6371606422395310e-05 1.8886833744829198e-01  -2.2501377180299845e-04 3.7381976539601441e-05 1.6662733431771684e-01  -2.1755140612363027e-04 -1.1597448242944991e-03 1.6034867153245766e-01  -2.4765384322797048e-05 -1.7928226151432355e-04 1.2845624838276534e-01  -1.7733210447345915e-03 -3.6726776595960554e-03 1.4377617421225636e-02  -6.2790839009758696e-05 -3.8883576567489732e-04 2.1253238828961452e-01  -1.0405023834750114e-04 3.1381445056667779e-05 1.6546327024833796e-01  -1.7992912555381201e-04 2.6815596263936911e-04 2.0805549886584818e-01  -1.6351314636211734e-04 -4.6728564024065662e-04 1.9351078356229823e-01  -1.0584787084863111e-04 1.0111121640519780e-04 1.5833929277010411e-01  -1.3229695689875377e-04 1.6230761949571025e-03 7.1894410176702962e-03  5.1573424719866456e-03 8.5320741244121964e-03 9.1074114686388388e-02  -3.7349561158091225e-03 9.1627641408714815e-03 9.9323177911044280e-02  -4.8951050894830714e-03 4.4879892703398525e-03 9.0616532612095471e-02  -4.7564684688127315e-03 4.9132935918341763e-03 1.5232780527265249e-01  5.9026738623445480e-03 5.2866890168427405e-03 1.4551026436820239e-01  2.4674376018720902e-03 3.2079483485866322e-03 8.6225926547874615e-02  8.9665446843703225e-03 -5.3761885484689383e-03 1.3071998637444374e-01  8.3365377701166022e-03 -1.5297416804851800e-03 1.6326836271689135e-01  5.7099110609028000e-03 6.5223063699180897e-04 1.1002525798959377e-01  6.0281279302186559e-03 -3.6679977126732660e-03 1.4250868210052517e-01  7.8340378323326076e-03 -1.5797681515633286e-04 9.5211714633588615e-02  1.6932943194137060e-02 -1.6598487819802902e-03 1.4842033594094428e-01  1.0561187300150961e-02 -6.0966825713796805e-03 8.9027066764186341e-02  4.0045375593734962e-03 -4.4125870594424899e-03 7.6878537679794967e-02  2.5739446970191983e-03 1.1109003554081733e-05 1.2751854280065456e-01  3.7465574932004980e-03 -3.1934906346555341e-03 1.6510121879330322e-01  4.7677380383994708e-04 -9.6899448182123486e-04 8.0556504890715497e-04  4.2233105025530596e-04 -7.7061149562600675e-04 -2.3999959940346191e-05  1.0777926522813920e-03 -6.3653759711553156e-04 7.1616132842525965e-02  -2.2460053851559647e-04 -1.9606232264447574e-03 7.4015266024035312e-02  -9.8750305973199803e-04 7.8234268418631524e-04 1.6208443414885429e-01  1.1296726298461450e-03 3.6700074128606295e-04 1.7373986162180963e-01  -8.1545053430114338e-04 1.6505556677715264e-03 2.1039087469616449e-01  2.4656015613833088e-03 2.6580178517209372e-03 1.8867176882783629e-01  1.7658416760242236e-03 2.0704016415715159e-03 1.6820497213523466e-01  5.1379292031390668e-04 -9.0988587524717609e-04 1.8022457144243714e-04  3.2267734395347009e-04 -7.9476487290257270e-04 -3.7076597156931524e-04  1.1021410104294785e-03 2.3481653708409991e-03 1.4845465457423390e-01  -9.8795515698311357e-04 2.8975510092956558e-03 1.8352882219786637e-01  7.3791018396564018e-04 -1.5017995886377747e-03 4.2749858735062771e-03  1.6064603818904683e-03 -1.6202569206922167e-03 5.8602830751475913e-03  1.0475504063800602e-03 -1.1831297797070368e-03 2.8359043106142446e-03  1.1159624071356055e-03 -1.9495094324538244e-03 7.7843418986664956e-02  5.5887985448109011e-03 3.6372857995737723e-03 1.6183557487554157e-01  3.1086753539390096e-03 3.3475211223295753e-03 1.4101443425955959e-01  -2.9416614561937306e-04 1.4074582284083314e-03 1.5176176542262268e-01  2.2596907296772869e-03 9.7827789054677114e-04 9.8443681120110510e-02  1.3510458918814046e-03 2.0861025979696181e-03 1.3387215294896287e-01  6.2421883062570597e-04 2.3711938014909307e-03 1.2606814988004689e-01  -1.0660814381240810e-03 -2.0424265653176503e-04 1.4832399145894148e-01  1.2595179462212517e-03 2.2501087307451653e-04 5.4233859793748049e-02  -9.5353869168810900e-04 5.8791425275381368e-04 6.7667685865663782e-02  2.6560947659865798e-04 -1.4927595401284432e-03 1.3940886188794055e-01  -3.3247145608506640e-04 -2.5901940751968264e-04 1.3377055604050067e-01  -7.6569153212174184e-04 -6.7153961102638506e-04 1.0921165692474176e-01  5.6630890725580506e-04 7.3922613012106686e-04 5.3627570729136202e-02  -5.0776666959627187e-04 -9.6292597275553942e-04 8.3501990207734966e-02  -1.3615398654865158e-04 4.8552284307939439e-04 1.5896479861567686e-01  4.9440758640237304e-04 1.2435911392659008e-04 1.6295514540663023e-01  1.1802547570058111e-04 -7.5511907780648278e-04 1.0924594176341271e-01  1.0488257933024647e-03 -1.0347801963959528e-03 1.7809143995349494e-01  6.1200654004207921e-04 2.7373544786584759e-04 1.4475376737228005e-01  4.7565796524259206e-04 -1.2673351161812270e-03 1.4023132134424851e-01  -9.0005697548957745e-04 -1.7760167469745879e-03 1.9088557329352623e-01  -2.2777537092388863e-04 -5.5304783631286020e-04 1.8875011104108544e-01  -8.5128245030817288e-04 3.2119307581109579e-04 2.2798983405648812e-03  -5.7961654559496279e-04 3.1744845510381890e-04 4.5432841828309365e-04  -7.7627758560095263e-04 2.5829831848853769e-04 1.1284616571429395e-03  -1.1874177051030305e-03 6.3480191714630600e-04 7.8398760696555950e-02  3.2536535887284579e-03 -3.3538666860905239e-03 1.6371947579858822e-02  1.5207609919050842e-03 -2.5591719477846536e-03 8.8567149257643210e-03  3.2052821010561151e-03 -2.4725162330805368e-03 1.1499989177943804e-02  1.6800375493921202e-03 -4.3858346605203510e-03 1.2915104941155992e-02  5.4399132303058976e-04 -1.3999060200723824e-03 1.8031217592254103e-01  -8.3845198022173377e-03 -1.8868293296670263e-03 1.4310571530414923e-01  -8.7209284167358830e-03 -1.5534417186510250e-03 9.5688662130800309e-02  -1.6564104901522644e-02 -1.2777501637126251e-02 1.0995019180895889e-01  -1.1530773159322733e-02 -4.5240060008136285e-04 1.4396088521752026e-01  1.4016972958582855e-03 -2.7403944947188576e-03 1.4084629377978747e-01  4.2707803095722151e-03 -4.6935247486473951e-03 1.2928630919975106e-01  9.3797673183386242e-05 -4.8598382659204649e-04 -1.3859496859271474e-03  7.4345446396724321e-05 -4.4462805288900711e-04 -1.8276060564753993e-03  5.3203268764796102e-04 -3.2755425057430889e-04 7.3441050529195084e-02  4.7015784029826518e-04 -4.6030878919016546e-04 9.4605750398272376e-02  3.8557447798059257e-04 -1.0913588388863603e-03 8.2574242340424472e-02  1.9162095654025751e-03 -1.5419071001883662e-03 1.6721332923061258e-01  -3.1867938222500890e-03 -5.5601004874758775e-03 1.2772315824293168e-02  -9.7400352061061915e-04 -2.1881442270155621e-03 6.7377000719113008e-03  -1.7888415409368836e-04 -2.7932024182825187e-03 9.3068866856509617e-03  1.4213616100797955e-04 3.6451479545574525e-04 1.6096565641730878e-01  -1.2049587323524834e-04 2.8347618370331904e-05 1.5139778659128594e-01  5.3375368672478928e-05 -2.3369244062312804e-04 1.4965368504833707e-01  2.8188886677787923e-04 -2.5864071086018688e-04 1.0436913860530307e-01  1.4230624538736101e-04 -2.6222065969258601e-04 8.8241299044697186e-02  3.8080678165765020e-04 1.6283251700425339e-04 1.5066007424111921e-01  5.5978795148284589e-05 1.9964559572337517e-04 1.9367847669253244e-01  1.2773585698468463e-04 -1.6591631706408153e-04 1.5741892093462445e-01  5.5153912433351814e-05 -5.5469818356277004e-05 1.1629715252676731e-01  7.3482453791126324e-05 -7.8081147015873081e-05 1.8649579131266666e-01  -7.4434731860769223e-06 -2.5155317772075679e-04 1.1701390979566538e-01  -5.5766872962600045e-04 4.1374587446209890e-04 3.7282570982263955e-04  -3.7790266322330576e-04 2.4625568506558479e-04 -1.2729385057705947e-04  -6.0080238357394030e-04 -7.0754150739802259e-04 9.0316466504138576e-02  1.8310535665602993e-04 -1.6327921093292597e-03 5.5169017106528308e-02  1.6286039738935953e-04 9.6032238079702550e-05 1.7605152196843582e-01  -3.6904722477818803e-06 2.1905242468091437e-04 1.0903786547092237e-01  -1.3936486442185186e-05 3.8102970705198420e-04 1.9277606939830205e-01  -4.4255196315901317e-04 3.1065211507221762e-04 -1.5457837765036613e-04  -3.8124294370247029e-04 2.9006969221614633e-04 -7.3445583296894552e-04  6.6023653060447911e-04 3.2490431537178803e-04 1.3011837960358424e-01  -4.4854814079647680e-04 -4.6076407352242508e-04 9.0687836451140993e-02  -1.1405457924193739e-04 -4.4477782540068777e-05 1.1883911427289119e-01  -6.1749047058311376e-04 -6.3482429220457443e-04 1.0551572449447433e-01  -3.9377209372835849e-04 -8.1231058813999017e-04 1.9040575512160118e-01  -2.0246944164651443e-05 -8.5852946250307525e-05 -2.5581645774260930e-03  -1.6281439922376429e-05 -9.6394951569280605e-05 -2.5725874576405902e-03  -5.0136452946622452e-05 -2.2534048519637709e-04 -2.2603723012984160e-03  -2.4412039332160414e-04 1.9032721445556998e-04 9.0232298360886740e-02  -5.3566865642896409e-05 -8.9011103793730872e-05 1.9307919219107525e-01  -1.6188684637873690e-04 6.0202072313573428e-05 1.9413351193253586e-01  5.3498460695337993e-05 9.8544460942242467e-04 1.5174473005729319e-01  3.2424604359459878e-04 1.7477171459303830e-04 1.7510572740975414e-01  4.9761091269739845e-04 2.0837194853202002e-04 1.7954325053749781e-01  5.7862735973967128e-04 -2.0908491626656661e-04 1.6524444272560565e-01  -4.3039256667267204e-04 -8.0025784563205284e-04 6.3764079931067502e-04  -2.5417581091138392e-04 -6.3184544795590796e-04 -1.4015556395087755e-04  4.7783814551396911e-04 8.4082647418954655e-05 5.9129135464862252e-02  -8.9852436204393969e-04 3.9547938033637932e-04 8.1670294555913736e-02  -1.3421279534907613e-04 4.6530666170646248e-04 1.4701783908526164e-01  -3.9171510201566897e-04 7.4410754653950542e-04 1.5872284549524210e-01  -2.8918838785243774e-03 -1.0717620781988686e-03 1.8305895191434007e-01  -3.9225098964799513e-03 1.6700103075244074e-03 1.6550746091126786e-01  -6.1895858100759890e-03 8.0607581310676631e-03 1.3546565250181142e-01  -7.1703579356173506e-03 2.9367171745279148e-03 1.3600175060052108e-01  -1.3616042847086743e-02 1.2836324774803613e-02 1.2577163412157469e-01  1.0877498728282867e-06 6.7458815729902209e-05 2.0531064947282116e-01  -9.2742856393085584e-05 1.8112023963338421e-04 1.9043143045790567e-01  -2.5912122282574610e-04 2.7086811572150530e-04 1.7042846466078285e-01  2.4071665091916306e-04 2.0036604695029467e-04 2.1254108890283346e-01  -3.5687195396131071e-05 5.1958980256109190e-04 1.7905396710847310e-01  -2.7933813973793890e-04 1.8473435570566358e-04 1.8312015026295433e-01  -1.5634613653674848e-04 1.8071633374546573e-04 2.0129846450931821e-01  5.0473065604934309e-05 -3.1706942283196292e-05 1.6599472980225044e-01  1.5642141505181747e-04 -2.9839671312545347e-06 1.6918720218837771e-01  -4.5103508872904854e-04 -2.2678372603298481e-05 7.8809847834932223e-02  -2.2217807149298505e-04 3.0307223034546312e-04 1.1915104302256088e-01  -1.0981206621146972e-04 2.4603616276075012e-04 1.2537246187478190e-01  -1.8741065422761815e-04 -1.4890094850617824e-04 6.2771245604694922e-02  -9.4540657903069584e-06 2.6224990469675278e-04 8.7017188816305144e-02  -1.4535769069369076e-04 5.0989782018608413e-04 1.1770498564408691e-01  4.9272958294032166e-05 -3.9602562310963804e-04 8.8348183899650184e-02  6.0340981090109234e-05 4.2917702279922430e-04 8.0855358587684500e-02  7.0527199445597879e-03 -1.0054472820218464e-02 7.7701857283816997e-02  7.9456403749504512e-03 -8.7063876111686637e-03 8.9292584548417098e-02  3.6398792504814177e-03 -2.9588968488985668e-03 6.7928443894616691e-02  1.6677686946785363e-02 -1.3782947466951963e-02 1.2870962047709700e-01  -1.8645561329106452e-02 -8.4156495074861233e-03 1.2353207467387498e-01  -1.3737815131905666e-02 -1.8197091585806520e-02 1.2108904780265196e-01  -1.6348670765026180e-03 3.6253784657036087e-04 5.6571031160704425e-03  -2.7101924100925066e-03 7.9774309854281232e-04 7.0329171655680069e-03  -1.2469824287214245e-03 3.9629106418435629e-04 3.5445095515287410e-03  -1.9278323288054399e-03 9.9449152057498949e-04 6.8605891764058624e-02  4.7184578761193495e-03 -1.7504647401298666e-02 1.2780076500408086e-01  -2.2785175571220887e-04 -2.1561963390266687e-02 1.0149396288655106e-01  3.8185145568025358e-03 -1.4804298070507775e-02 9.2574051166661037e-02  -7.1072318318080169e-03 -8.3374096242829817e-03 8.6195063007842188e-02  1.0697128381305720e-02 6.7122464144852836e-03 1.5103519061763646e-01  1.2441002627892522e-02 1.6098130470538822e-02 1.2625911703936066e-01  1.7393119069231099e-02 1.1210455250335051e-02 1.0372405146948348e-01  7.8645648827726164e-03 6.4019970047095682e-03 1.0882047926297894e-01  -1.3721419761980716e-05 -9.5574551975860855e-05 -2.6425026270716066e-03  1.7133893473251676e-05 -8.3890354964251512e-05 -2.6385937663483188e-03  -9.0500646389065067e-05 1.6878155334368271e-04 1.1588792330582663e-01  -1.2264205755969299e-03 1.2656532159427542e-03 7.9316495399817388e-03  -3.1341135427112349e-03 1.8453076257675869e-03 9.6544062202709880e-03  -4.1405721917782620e-03 3.2395776241359855e-03 7.8423467462515162e-02  6.8593730647364265e-05 -3.8078552929268495e-04 2.02101274133497