<?xml version="1.0"?>
<VTKFile type="UnstructuredGrid"  version="0.1"  >
<UnstructuredGrid>
<Piece  NumberOfPoints="857" NumberOfCells="3763">
<Points>
<DataArray  type="Float64"  NumberOfComponents="3"  format="ascii">-0.0182597916573 0.126128911972 -0.119588643312  -0.0077641364187 0.0512270443141 -0.07050477713349999  -0.0237180162221 0.16240182519 -0.053058128804  -0.107877351344 0.105669431388 -0.0502408407629  -0.0444478429854 0.116080775857 -0.00235075876117  0.0393674038351 0.112876079977 -0.0491501875222  0.0248903874308 0.0489483103156 0.000152088920004  0.0314915925264 0.114928804338 0.0218031276017  -0.0657326281071 0.0685198307037 0.0497140102088  -0.0355357266963 0.164656624198 0.0508319064975  -0.010538729839 -0.0422629192472 -0.208358153701  -0.0239527057856 0.0135364839807 -0.242119863629  -0.0194642152637 -0.0775559768081 -0.263431429863  -0.08492307364939999 -0.0108216870576 -0.280446648598  -0.08293507993220001 -0.0361198186874 -0.159778758883  -0.0240796487778 -0.0824203491211 -0.148982465267  0.0430508553982 -0.121076337993 -0.234084427357  0.0307756774127 0.0324950888753 -0.198437720537  0.00352357281372 -0.00433266581967 -0.144715368748  -0.0456651262939 0.08372022956609999 0.342343091965  -0.116630032659 0.0117083769292 0.386158525944  -0.08223126828669999 0.0577075146139 0.289406776428  -0.0511222109199 0.00205342215486 0.300772219896  -0.0125984866172 0.0267426930368 0.351842552423  0.0303636882454 0.0561947338283 0.391145974398  -0.0524924062192 0.0543583929539 0.40361738205  -0.07944945245979999 0.130002260208 0.441037595272  -0.000730989675503 0.119443200529 0.385622620583  -0.078488714993 0.137875169516 0.332541137934  0.0142801422626 0.110509291291 0.27100610733  0.0224165506661 0.08303219079970001 0.331783413887  -0.0170432701707 0.161798536777 0.30022162199  0.000811119796708 -0.0515509881079 -0.08419398218390001  0.0888616070151 -0.015075173229 -0.0776951387525  -0.0989535748959 -0.0518730916083 -0.08125374466180001  -0.0433920919895 -0.09785594791170001 0.0106235472485  -0.0488061010838 0.0295096840709 -0.0131453983486  -0.25 0.25 0.5  -0.166666666667 0.25 0.5  -0.25 0.195066730511 0.445658150344  -0.19506166517 0.25 0.445542865294  -0.0213422998786 -0.126349791884 -0.045622177422  -0.117952652276 0.0158270020038 -0.16616243124  -0.0531469397247 0.0490713231266 -0.13630309701  0.0358348339796 -0.131537660956 -0.134171053767  0.0583617314696 -0.115307979286 -0.0462360456586  0.010585160926 -0.0606908276677 0.314250290394  0.078067921102 -0.133790805936 0.331458956003  0.0206208750606 -0.104583717883 0.36723652482  0.0300164371729 -0.13569638133 0.270959883928  0.0797956883907 -0.07311873137949999 0.388136893511  0.0291880238801 -0.0850581228733 0.220644980669  0.0788302049041 -0.07555303722620001 0.284453928471  -0.0465739220381 -0.108428947628 0.305151432753  -0.056692365557 -0.0812899768353 0.234353885055  0.10282895714 0.0630551427603 -0.0452189296484  0.178613707423 0.153893724084 -0.0703043565154  0.0750898644328 0.130835875869 -0.116260357201  0.0179002508521 -0.0400723591447 0.396018892527  0.07961820065980001 -0.020668130368 0.232235535979  -0.00726175494492 -0.022667773068 0.242156982422  0.0524490773678 0.0171752162278 0.310696065426  0.0103002395481 0.0813155695796 0.107229083776  0.00225681974553 -0.008687185123560001 0.0457225777209  0.177950121638 0.25 0.0405701099774  0.151375159621 0.202163234353 -0.00268407491967  0.13042794168 0.172564610839 0.0599601529539  0.184557154775 0.16295710206 -0.00737970136106  0.0827306732535 0.011830884032 0.0299163535237  0.106673434377 0.0676268041134 0.0663062110543  0.25 0.25 0  0.25 0.177947182503 0.0435581305687  0.0251978598535 -0.0201241951436 -0.0233656335622  -0.25 -0.25 0.25  -0.175495340629 -0.25 0.295351832328  -0.25 -0.175776260788 0.294629825204  -0.164853364229 -0.189889326692 0.246240898967  0.111295968676 0.25 -0.00354384794953  0.0417815256417 0.25 0.0264120515999  0.0577150444892 0.25 -0.0418173710713  0.035034801811 0.196921139956 -0.0497792549431  -0.115254960954 0.0352221727371 -0.0357825122774  0.0360979661345 0.0743419006467 -0.130612716079  0.08110298216340001 0.0143552683294 -0.135737240314  0.0281950440258 0.110801942647 -0.38559025526  -0.000352636008756 0.154027625918 -0.45018479228  0.0220217909664 0.07910815626379999 -0.445265561342  -0.041934799403 0.09297795593740001 -0.440330862999  -0.115356497467 0.128115877509 0.0303980205208  -0.08144567906859999 0.192924261093 -0.0396481454372  -0.0503155887127 -0.140062868595 0.370642662048  0.0181560348719 -0.191118896008 0.319997102022  -0.09442232549189999 -0.0766885429621 0.347179293633  -0.10306725651 -0.0245223585516 0.261891931295  -0.0371639840305 -0.192689821124 0.258922994137  -0.08778057992460001 -0.193450272083 0.293951839209  -0.116932563484 -0.137108251452 0.278956532478  -0.0434515699744 -0.19969072938 0.340430229902  -0.016621209681 -0.143479332328 0.208528921008  -0.0799133181572 -0.177766740322 0.206858798862  -0.0340202823281 -0.07231882214550001 0.405357718468  -0.153045728803 -0.0703692808747 0.28540495038  -0.0647673308849 -0.069349065423 -0.297796696424  -0.0468406006694 -0.118580199778 -0.331259429455  -0.0636249184608 -0.122360698879 -0.235275790095  -0.137311711907 -0.115820750594 -0.279358655214  -0.25 -0.25 0.333333333333  -0.00222280388698 -0.0275516584516 -0.327156513929  0.0233143884689 -0.124395690858 -0.330935031176  -0.00544846989214 -0.0444226972759 -0.392852008343  -0.07202984392639999 -0.0450558848679 -0.379192590714  -0.128861442208 -0.0482712239027 -0.325591087341  -0.0319190612757 0.25 0.27473160228  0.0259018652141 0.196524605155 0.343851953745  -0.0424101948738 0.196461260319 0.324036180973  -0.08801463991400001 0.193724930286 0.280150324106  -0.051391992718 0.129726842046 0.244459152222  0.0793330296874 0.131078347564 0.273738384247  0.0304427426308 0.197590425611 0.258007407188  0.139736711979 -0.103549621999 0.308288753033  0.117407329381 -0.00031748006586 0.284001767635  0.17845864594 0.0137020656839 0.2717012465  0.133446916938 -0.07468281686309999 0.252671837807  0.193237304688 0.0103836003691 0.32706490159  0.108656100929 -0.016409387812 0.370573759079  0.195593327284 -0.0705924406648 0.374003827572  0.204297035933 -0.0882691517472 0.283604085445  0.15987212956 -0.0232784096152 0.211559042335  0.103109702468 -0.0715631917119 0.185957938433  0.25 -0.177950121638 0.0405701099774  0.25 -0.111295968676 -0.00354384794953  0.168315500021 -0.181550845504 -0.0129796266556  0.203061833978 -0.0839376300573 0.0201103240252  -0.123973377049 0.0421161539853 0.0831994190812  0.10652089864 0.041568480432 0.133020982146  -0.00508088478819 0.00464248098433 0.118765294552  0.0384838804603 0.0542355030775 0.219570666552  0.0556482039392 0.09942726045850001 0.165778696537  0.25 -0.25 0  0.25 -0.17904445884 -0.0421267671166  0.0085972994566 0.139411628246 0.206887423992  -0.0427397117019 0.0734880268574 0.199836358428  0.25 -0.25 0.166666666667  0.177338154858 -0.25 0.209433902167  0.178222204231 -0.25 0.126578397361  0.180748909712 -0.154124230146 0.180074676871  0.118582360446 0.0498475395143 0.233844980597  0.113276541233 0.115120351315 0.208414897323  0.068451166153 0.123325429857 0.09300038218499999  0.08695217221980001 0.18308262527 0.11987875402  0.1366494596 0.0978636816144 0.125807240605  0.0170362386853 0.165571182966 0.116205818951  -0.075325883925 -0.13042730093 -0.120773427188  -0.191016584635 -0.1764793396 -0.0778442546725  -0.102759346366 -0.20253264904 -0.07015967369080001  -0.126150563359 -0.115044787526 -0.0573479756713  -0.138729035854 -0.104583211243 -0.134180948138  -0.147993162274 -0.138949289918 -0.203295826912  -0.180331096053 -0.192031860352 -0.160557568073  -0.194399222732 -0.0846866071224 -0.148938387632  -0.11259970814 -0.078034222126 -0.193649172783  0.0326924659312 -0.122268341482 0.0296003930271  0.0215157996863 -0.180560961366 -0.0757267251611  0.0956164896488 -0.0493310950696 -0.0164182558656  0.112129375339 -0.112067811191 -0.105549775064  0.127802968025 -0.106147237122 -0.0110959038138  -0.0854129120708 -0.015297700651 0.056893799454  -0.0204317308962 -0.0795602425933 0.117458000779  -0.178222204231 0.25 0.126578397361  -0.177947182503 0.25 0.0435581305687  -0.107976816083 0.25 0.0905854563709  -0.157577678561 0.178241759539 0.0969507619739  0.25 -0.25 0.333333333333  0.25 -0.25 0.25  0.175776260788 -0.25 0.294629825204  0.25 -0.175495340629 0.295351832328  0.0932372882962 -0.0430554822087 0.0724518448114  -0.044769000262 -0.00661279587075 0.403999477625  -0.194478780031 -0.0247275307775 0.332954645157  -0.173761367798 -0.0806607827544 0.396263659  -0.137637495995 0.00523930834606 0.315887242556  0.0864742994308 -0.139340251684 0.176064118743  0.105438224971 -0.136641919613 0.253711819649  0.0308670303835 -0.25 -0.136809572586  0.0367561832589 -0.25 -0.219583441074  0.0925811678171 -0.20055809617 -0.19996842742  0.0127155454829 -0.193433105946 -0.225977659225  0.0415658205748 -0.200880005956 0.196522325277  0.0373581312597 -0.119548290968 0.120048768818  -0.0954102815882 -0.25 0.346414074494  -0.101368582479 -0.25 0.251933327382  -0.0374909392175 -0.25 0.286229296012  0.0852289572358 0.109103307128 -0.27055695653  0.07707493752239999 0.127253636718 -0.199824258685  0.128097131848 0.07648140937090001 -0.209757223725  0.154867321253 0.13628205657 -0.212952241302  0.08678253740069999 0.189277544618 -0.274375885725  0.127699971199 0.0803090333939 -0.326344817877  0.0577741526067 0.0601542405784 -0.31936660409  0.0525139421225 0.129102528095 -0.326874881983  0.0251371748745 0.175572559237 -0.261228203773  0.0199144631624 0.0927290171385 -0.265960127115  -0.148952946067 -0.121583275497 -0.374568909407  -0.25 0.177950121638 0.0405701099774  -0.25 0.111295968676 -0.00354384794953  -0.175531774759 0.135734900832 0.0562076568604  -0.178730383515 0.191659659147 -0.00562386959791  -0.0244714934379 -0.108516678214 -0.387223660946  -0.09279609471560001 -0.170035287738 -0.445968538523  -0.0281062982976 -0.0
[...]
<PointData  Vectors="f_57"> 
<DataArray  type="Float64"  Name="f_57"  NumberOfComponents="3" format="ascii">-7.6198038009116546e-04 1.2765280868161761e-03 -6.0693491660678139e-03  -8.7314964381116891e-04 1.8624288234720082e-03 -1.0971349698663377e-02  -1.8345589190201664e-04 -6.7233000068103309e-04 -3.2385597083747189e-03  -3.8146646894206063e-03 2.0995528614912492e-03 -1.0177898635821598e-03  -3.5740041468103607e-03 3.5054067704567162e-03 1.2922986546512133e-03  -4.0285344314111892e-03 -1.0454518308883182e-03 -5.8692000774911955e-03  1.3152902907846438e-03 -8.9769656911129370e-04 -1.0779647754190593e-02  -3.1744702655293403e-03 7.6078487845624115e-04 -5.6507838199721548e-03  -1.0136373009279106e-02 4.8370144446948839e-03 2.7338244804977270e-04  -3.9698839333599002e-03 9.5908066414592441e-04 -1.3607976176084589e-03  8.3413350777049194e-05 -5.6394163973761584e-04 -1.0885974925837250e-02  5.1968967687581152e-04 -7.9904305612751663e-04 -1.2572767038294543e-02  2.1656645235855132e-04 4.3082277129410560e-04 -1.1545201637588577e-02  1.1318626388976819e-03 -6.5238994157454453e-04 -1.2473731664879801e-02  -1.5570889933391244e-04 1.6697884393141978e-03 -9.1562769316692900e-03  -9.8863602061404193e-04 8.6157211761983619e-04 -7.7584226439141842e-03  1.1548242950301835e-03 4.0440323535381577e-04 -1.0972059291274308e-02  9.3500704572449072e-05 -4.9005364760119278e-04 -1.2155605996421437e-02  -5.9738118901585073e-04 8.5720733828294443e-04 -1.0888130186355255e-02  -3.3182041405924977e-02 9.8419630703384109e-03 -2.7245667564452952e-03  -1.6026363584126176e-02 1.8827428227627504e-02 -1.0646619904181382e-02  -1.1524245033087818e-02 2.6195382121260474e-03 -3.1433781251409164e-04  -1.5098558777781134e-02 2.2328614264006418e-03 -9.4998804734008468e-03  -2.6145725349707459e-02 2.7913607055141270e-02 -2.0161672981043904e-02  -3.1228794604457925e-02 1.5605169080326739e-02 -2.6539215403732667e-02  -1.5919886897445525e-02 2.2246640687365303e-03 -8.5808164940557961e-03  -8.6220486572926747e-02 4.5957488050184264e-02 1.7711487590270053e-02  3.5817164523706622e-05 5.8251329213325209e-03 -2.8251029922098463e-03  2.8446182243808866e-02 -3.7766897926420601e-02 -4.7294841071367326e-03  3.1055465213653411e-04 9.2418279797152943e-03 -2.6772361986755681e-03  -2.2368941965597810e-02 5.3772580988334785e-04 -1.1705794314472370e-02  -1.9490205968387894e-02 1.2780702074667695e-02 -2.7917522923023705e-03  -5.0026536260199580e-04 1.6465623504711361e-04 -1.0594201325595571e-02  -5.1874283472510619e-04 1.7061169103783002e-03 -1.0470971188408560e-02  -8.8705078293276475e-04 -3.1751072547465996e-04 -8.5530866189145096e-03  2.0119470405701050e-04 -1.7850379048236548e-03 -8.4084740256242414e-03  -1.4104811367643456e-03 5.7830588662884565e-03 -5.8653624529190268e-03  1.2417457089225295e-01 -1.2852794054355610e-01 1.0882055424363944e-01  6.8880102686202704e-02 -1.0052992380270219e-01 6.8424407238204241e-02  8.2433936461456775e-02 -4.8575536900472616e-02 6.6196294775339268e-02  5.6024095334077657e-02 -6.6135281088261583e-02 3.8717984468002169e-02  -1.3779639266127144e-03 2.8702736053020820e-04 -5.7230745069330145e-03  5.2426888518019429e-03 -2.0933166703812601e-03 -1.2858195894927109e-02  -2.7330153170642968e-03 1.2820124054237251e-03 -7.3714553017058893e-03  -9.7715542539048342e-04 5.6953702341593147e-04 -6.9578334969648513e-03  -1.0080980047315450e-03 -2.1341038136884808e-03 -3.8557507519530478e-03  -1.4544725589861172e-02 3.5534697901481072e-03 -1.8398460072098031e-02  -8.8472915153023947e-03 7.0958719998184963e-03 -1.7137234669794429e-02  -1.0543001245157054e-02 1.0239970124844018e-02 -2.3191931064970667e-02  -7.9834733054391996e-03 -6.6913248167480032e-04 -1.2288171159512140e-02  -1.0635360992374193e-02 9.2997148658042292e-03 -3.3308484579810178e-02  -1.1990457629423225e-02 -6.9426308367190120e-04 -6.7157758459078769e-03  -1.1278978062717675e-02 6.6043032084324579e-04 -1.6094166927155974e-02  -5.9381468143491350e-03 3.0999071940861389e-03 -2.4695289223199034e-02  -1.1263440449960610e-02 3.1157309256954918e-03 -1.1865477088982888e-03  2.3431420438629603e-04 -5.7152961021648551e-04 -1.1074475948438800e-02  1.7704187930827717e-03 -7.8763491203532281e-05 -4.0579747237152050e-05  -1.6014856938585823e-03 -8.3165906642471924e-04 -6.7932052425549840e-03  -2.0601762415610951e-02 2.0158803537091842e-03 -2.6503264232693904e-02  -7.5076271561663570e-03 -2.2214186504911689e-04 -1.0205256468366416e-02  -1.5300135989430655e-02 1.6393353008075104e-03 -4.0955395571745656e-03  -8.0727190582351328e-03 3.6196598935627554e-03 -1.5110588613947493e-02  -1.1281785181705172e-03 -1.3719838796620949e-03 -6.5632498472385954e-03  1.4324828556886784e-03 3.9084324904396211e-03 -1.1546536183753535e-02  1.6808173575115731e-04 -3.1582098830017159e-03 -1.5762227581294819e-03  7.1905284198643046e-03 1.2613859033015126e-03 -5.0493764557067739e-03  -3.3004418215042577e-03 2.2501300659238878e-03 -2.6916145326643095e-03  -7.0707149163423515e-04 -4.4754192148793561e-03 -8.4324501398425986e-03  2.6446648001333657e-04 -1.2032880681422321e-03 -1.0750114850601133e-02  -1.2833969366408784e-03 -1.2190840928964408e-03 -4.6973951585275809e-03  5.9388213737428480e-05 -2.6801948492409309e-03 -4.7486036110065357e-04  8.1761332558333443e-05 -3.0257471540123225e-03 -1.4166857483865294e-03  -1.4479394709464878e-03 -1.2871405890059848e-03 -1.6051219260356759e-02  1.5300792681009931e-02 1.1510189947936109e-02 -1.3399971044533438e-02  1.8423346691373757e-02 1.7931033578302370e-02 -8.2664274813224609e-03  1.6930417709132235e-02 1.4439665681853953e-02 -1.5229529499025979e-02  -4.5572472435849470e-04 1.3272382145320793e-02 -1.5346356687575407e-02  1.5877885198899225e-03 -2.7868007463141475e-03 -2.7121904481433216e-04  2.5534930563908933e-03 -3.3457448476680389e-03 -1.2925276981122656e-03  2.0533036509894306e-03 -2.2549289396626830e-03 6.2923512523799360e-04  -5.2349387766530437e-03 -6.7691820320849673e-05 -6.7505754423615979e-03  2.3345450477791161e-03 7.4538598703697835e-05 -1.0603467084124763e-02  -1.3791819050937169e-03 -5.9821628382833458e-04 -8.0454447004537251e-03  -1.0433031041785200e-03 -1.0293155623839617e-03 -1.2334131231590922e-02  -5.0124710188885501e-04 -2.2831911742095230e-04 -7.7775562770090005e-03  -5.6028058548252783e-04 -2.0729378555835816e-04 -7.1218311319213362e-03  -2.6634489195927880e-04 7.1671848106564064e-04 -9.9724520804608790e-03  -1.1724919380199437e-03 3.3685536170106949e-04 -1.0402532128615839e-02  -5.9233363170808854e-03 5.4878092246731097e-03 -1.9299288246632602e-04  5.8336318797885171e-04 3.6619268800655564e-04 -6.0096801024834634e-03  -3.7339231373395426e-02 -1.2237795291924668e-02 -2.7125752499500087e-02  -7.0398849231363874e-03 1.0598890857709980e-03 -1.4023195484856548e-02  -1.9373616079327582e-02 -3.6488690565249763e-04 -1.1534450988731544e-02  -2.5420458658773001e-03 1.2696920731946903e-02 -8.0679093683549905e-03  -1.7525675279273501e-02 -8.5285162765705389e-03 3.2375516768829615e-03  2.2581049850588148e-03 -1.6718084360309742e-03 -2.4536500415726564e-02  -2.9676026045254315e-02 4.2117357861623725e-03 2.4015271428555651e-02  -2.5527906619752974e-02 -6.4753549580994045e-03 -5.9428002744730682e-03  -8.9940360231191528e-03 -2.8675823630863878e-03 -3.3035016018423788e-03  -4.9628759833356259e-03 1.2686499584546457e-03 -6.5226591928473155e-03  -2.4024327274992378e-02 4.9551735371193041e-03 -3.0046616165955300e-02  5.1330322744785866e-03 2.9398445288636270e-02 -1.4933863243252186e-02  1.8364151577774871e-03 1.7063605685388187e-04 -1.1618767725024001e-02  9.8145900340241817e-04 -7.9789614388467119e-04 -9.9719560189371441e-03  1.7205179235381207e-03 1.4333266312563249e-03 -9.4421414670721217e-03  9.8977208041932754e-04 3.1396187748907199e-04 -6.3013029688345837e-03  4.7694410554730463e-02 4.7733416355642863e-02 -1.4210201250554073e-03  5.6999363268743530e-04 2.9118734072724198e-04 -1.3722241114445810e-02  1.9334432786719989e-04 -4.2530751931907389e-04 -8.5251821982086258e-03  3.0650911419636390e-04 -4.8882577843759316e-04 -1.1872320684462616e-02  3.4607012306812348e-04 1.5734894251354999e-03 -1.0943386582615634e-02  -7.6803037560549783e-04 3.1733688554057327e-05 -9.0101744378495233e-03  1.0898203578673793e-02 -9.1129761370430107e-03 -3.9133861885817245e-03  -4.3218088900647073e-02 1.4783923346774459e-02 -1.1472668573930374e-02  -1.8277253509847827e-02 -1.6520196567811885e-03 3.6681170286672497e-02  1.3634975061610552e-02 -3.3810927484749752e-02 -3.5153169187851177e-02  1.5029823230979083e-02 -4.7678148163178427e-03 -1.6931511203411916e-02  -4.7447955720657390e-03 1.4853802715496776e-03 -8.2462081420447957e-03  -1.3557626281528632e-03 6.0515269298056916e-04 -1.0790470121302272e-03  -8.8378238489305611e-03 -2.7688474958462070e-03 -1.8237009773531768e-02  -4.4245647749290469e-03 8.8013547187090098e-03 -1.7035125733147381e-02  -3.2294249908647087e-03 7.3262423601238528e-03 -1.0377962506322754e-02  -6.3315213942673520e-03 3.6494083594960855e-03 -1.0926605358874467e-02  5.9771172585228157e-03 4.7066679386165086e-03 -8.7321246312293144e-03  -1.0109337403219202e-02 6.7934035077319684e-03 -2.1251134409281072e-02  -1.4969556214462004e-03 -1.1365330910923501e-03 -1.4225532036611303e-02  -2.8719893030615248e-03 1.5763546828782024e-03 -1.0367253895618714e-02  -2.7761547164992446e-04 7.3540853708435269e-04 -6.7299635868616420e-03  -5.9625270753103131e-03 6.9390668498692859e-03 -1.1975093384510728e-02  7.5233847655884205e-04 3.1012059404596351e-04 6.8388656992195344e-05  4.6928727946463468e-04 7.2022669419106271e-05 1.1725121063883618e-03  7.1950183657916228e-05 -6.2404182727546562e-05 -7.1070701402096113e-03  1.9925524429677795e-03 3.4072409364318975e-03 -3.5546273798558749e-03  -5.4085697590885746e-04 3.8637981368513335e-03 -5.5013678296012662e-03  3.9543951344940049e-04 3.0216010520452831e-03 -1.1841767823390971e-02  1.5613757552724687e-03 -5.7746795926440454e-03 -1.5062257571919103e-02  -8.0956124598144264e-03 9.8160685742279055e-03 -7.8175013300239033e-03  -4.0629205768758460e-03 3.4021753661389168e-03 -4.2264131683093721e-04  6.5476944740440891e-04 4.5781944588190273e-04 1.0089348464693379e-03  6.7987765190712600e-04 4.0814562527054140e-04 1.9217746058151355e-03  -1.2375964098206051e-02 1.7298050531248752e-03 -4.0773035543927392e-03  -1.4281646900779552e-02 9.6934832951445175e-03 -2.5163553386276585e-03  7.1240961656507938e-04 6.7050663426436766e-04 -2.7033872430422151e-03  9.9957648612721884e-04 6.9171919680644824e-04 -3.7277996996502943e-03  8.7465348709421021e-04 6.3812925704827457e-04 -1.9599267440097842e-03  8.4282568904867267e-04 1.5533822368388578e-03 -4.9180608270764916e-03  -5.6134129392333256e-03 -1.2353913701333304e-03 -1.4091156059570278e-02  -1.0012359020593161e-02 2.8567376327335561e-04 -4.3240581755122874e-03  8.4678956568547288e-04 3.2517634392999410e-03 -3.1720600730378444e-03  -6.5594458967852638e-03 -2.4369814438122655e-03 -7.5721066586969879e-03  -1.0198295344139949e-03 -1.8847491620631162e-03 -5.6400383166008974e-03  -1.7580125357134131e-03 -2.3888926721693242e-03 -6.6248250732932447e-03  1.3954702594608289e-03 8.0539112629159483e-04 -6.9567624199784054e-03  -2.7791379461968428e-03 -1.3012742479742941e-03 5.5496388510758773e-03  -2.5508332137773283e-04 -3.6719291045760218e-04 -2.3626674174113117e-04  2.1698620524684561e-03 3.1319122065435996e-03 -1.3072071821967469e-02  1.2699976143931448e-03 2.4183717587842045e-04 -9.8899222473612155e-03  1.5527999951177236e-03 1.2362117478151703e-03 -7.5822568584179842e-03  6.1486108145501186e-04 -1.9448972925301216e-03 5.7047586605628732e-04  3.1454664930940916e-03 2.7176333759607457e-03 -2.5933206134126359e-03  -1.8465525836460705e-03 -2.2969074135824587e-04 -4.5173605363732555e-03  -1.1139081862454614e-03 -4.1165107253803620e-04 -5.6771321419469591e-03  1.2556291288102024e-03 1.8392388505662181e-03 -4.7989150587092856e-03  -2.7093301641921744e-03 1.7441641177620474e-03 -8.1448503519416706e-03  -1.7402030312006437e-03 -7.9216616956834349e-04 -6.7940841631344276e-03  -7.9352482714785757e-04 3.0618779955041823e-03 -8.8360046607673243e-03  1.2641071649540801e-03 5.9443059347230910e-03 -1.1929539723262741e-02  -2.8147822074995662e-03 -3.4693628462869854e-04 -7.4968809281455431e-03  1.0881540843490965e-02 -9.1350984718964502e-03 -1.0962847016484544e-02  6.4735805586809709e-03 -5.4185620046140167e-03 -6.6558380509494043e-03  7.7933131010244679e-03 -6.3735681090640282e-03 -6.9383716236947795e-03  -5.4882873635951396e-04 -1.3754408229993314e-03 -2.2853828365492054e-04  7.9484531047193383e-04 1.1022019199628166e-03 -6.5790344679856148e-03  6.1051034617385898e-04 7.9729162461605256e-04 -4.7989527550594806e-03  9.9095647216937682e-04 9.6351000386232755e-04 -5.4853981313288825e-03  5.3857052229610886e-04 6.6822625215897703e-04 -5.8465680025375959e-03  6.3242307204565309e-04 5.0192071561592352e-03 -9.0058242583288817e-03  -1.8684486844476340e-02 1.7037528459535812e-02 -1.8745093195643221e-02  -7.5031191183753936e-03 3.4471291931095119e-02 -3.8437558505487095e-03  -2.6771115132294084e-02 2.1714473149553260e-02 -2.8213934561254284e-03  -2.3279622058875415e-02 1.7906286249916956e-02 5.3985357660738626e-03  -5.8845758204066009e-05 4.2190128197794035e-03 -1.5094243135809824e-02  -3.9040188622120309e-03 3.0098818752058794e-03 -1.0743693329812763e-02  1.2647921262600537e-03 2.4157082045205258e-04 3.1267106763622409e-03  8.1111548880755569e-04 3.9297065328384187e-04 4.2659442793358737e-03  -4.3715515175409930e-04 4.5277428875670287e-04 3.4716073217200712e-05  4.3064158458126751e-04 -2.6523670647217505e-04 -5.5384394979312371e-03  -3.1616234901557455e-03 -2.7076804449812741e-04 -4.0394154264702846e-03  -5.1311460738083887e-03 3.1661745928420349e-03 -1.1855881713725246e-02  1.5173678743347210e-02 1.0851572979378566e-02 -6.0777898955820574e-03  9.8959264913799170e-03 6.8843445284815395e-03 -7.3844997680360949e-03  8.8695525765754447e-03 4.6699981351687441e-03 -5.3774422930632521e-03  -5.1039658725467163e-04 -8.7778522747203943e-04 -8.8800787365588153e-03  1.1729768875651874e-03 -6.7906438345221557e-04 -7.8745036658751447e-03  -8.8928785820283714e-04 7.1921687094943405e-04 -4.1371195072140710e-03  1.9587666122991194e-04 3.9939921412183581e-04 -4.2759926505715291e-03  -6.5837498986954601e-04 9.7282649796545423e-04 -9.6812255308600741e-04  7.5262156400425246e-04 -1.0445345237257051e-03 -7.9382223730988296e-03  1.4616884750664862e-05 -2.8846134609652546e-04 -1.0692261921246832e-02  -6.7919418760093277e-04 1.1730337439397134e-04 -6.9520243205455478e-03  1.0486646025421079e-03 -6.9553755878424748e-04 -6.8202476078133775e-03  2.2673085025552245e-04 4.0071307554076301e-04 -9.1312139234123318e-03  4.7491569153255151e-04 -1.4557398853815232e-04 -4.6497508147804092e-03  5.8048059044304200e-03 -6.0326785224579854e-03 -6.8049307410705511e-03  4.2274641556060352e-03 -4.1153386541386830e-03 -4.5989826618489374e-03  -2.0610838184604626e-03 7.2085192804581151e-03 4.4198710836402333e-03  5.1736778820715354e-03 2.0373908874732624e-03 3.6119340846196288e-03  -1.2438560745274743e-03 4.4300464190936875e-04 -6.9331090010357459e-03  1.6474864544948218e-04 -2.8443566842963926e-04 -4.2220769616556318e-03  -9.7527937898185882e-04 6.0804233089365193e-04 -1.0337838528099491e-02  5.2594868546274130e-03 -5.0944224772010611e-03 -4.8218315420122063e-03  3.6776701612929422e-03 -3.7900566207458826e-03 -2.9445786147954201e-03  4.2749331174682126e-05 -1.0407451829669721e-03 -7.6198189681080516e-03  1.4879685628632667e-03 1.1803849979703266e-03 -2.3926621788095109e-03  1.3926191046063740e-03 -6.8877442454696504e-04 -8.3298371844499203e-03  1.6628710312720926e-03 8.8832712180786160e-04 -3.8996783661874889e-03  1.1040240402714759e-03 3.6236968439448707e-04 -1.2543038137714515e-02  2.7594771729490237e-04 -3.7794129650556469e-05 5.0403959621442614e-03  2.7756126527251354e-04 4.8998992135752162e-05 5.4268865843119683e-03  7.6510949824924355e-04 9.2249918974409960e-05 4.5211245239183536e-03  1.0098302529830095e-03 -6.9074582609497356e-04 -3.2694230892964813e-03  -7.7398667816314483e-04 1.3540192238229369e-03 -8.9272482476399437e-03  -1.0079905382560021e-03 7.0151963113768059e-04 -8.2325705741347430e-03  -6.4366669555295322e-04 -2.0998569045731332e-03 -7.5811756235300513e-03  1.0097410119024902e-06 -2.7446897839148744e-04 -1.1322711555930686e-02  -2.4130547658425135e-03 5.3164085199492188e-04 -6.1112880835593316e-03  -1.7810317135965239e-03 1.3716968184375854e-03 -3.6325037787945311e-03  5.0741178746245745e-03 1.2879908608595494e-03 -3.5567864699847076e-03  3.4986579275934192e-03 8.5870480631715059e-04 -1.0507248111491557e-03  3.3970664231507157e-03 -1.4670423936262093e-03 -3.0162445876292057e-04  3.9225914827533109e-03 -1.1167433262079098e-03 -4.7714136261789034e-03  1.3929495148991774e-03 -1.9369340226385501e-03 -3.5362750238660265e-03  -4.4754444966691224e-04 2.2394660747495065e-04 -7.0467337117204971e-03  -6.9991639538684166e-03 9.0647863331067349e-03 -4.5022367540174506e-03  1.1931388800110522e-02 -4.1324108354271393e-03 -1.4452681438231489e-02  1.6872807797928741e-02 2.0612823308840358e-02 2.4917809458507672e-02  9.7045786701140078e-03 -1.4622424415721333e-02 -8.8698815207544079e-03  -1.9002943518124080e-02 3.3094304904095935e-02 -3.7672150215192962e-02  3.5203402800778558e-04 2.3479751066098260e-04 -1.1177995048242542e-02  -3.6105988481356248e-04 3.6311386863774271e-04 -1.1043786345407010e-02  -8.8971965678491530e-05 -7.7957722143393206e-05 -8.8049563272256763e-03  3.1935832320064940e-04 -2.9430455288871973e-04 -1.3257350365568540e-02  -4.1879065139938240e-04 -6.3898875733556248e-04 -1.0405169869346130e-02  1.8021089573354756e-03 -1.7409474878120033e-03 -1.1495983803913262e-02  -3.6514127868941824e-05 4.4416456029931333e-04 -1.0515533958052251e-02  -3.3036925787995476e-04 -3.8920725883480307e-04 -7.4985306763134365e-03  -2.5382632067550814e-04 3.9901339658095057e-04 -8.4047624971570062e-03  2.3193000700219652e-04 6.1513198067901368e-04 -1.2662522476268518e-03  1.3899879643647288e-04 3.7603163468832764e-04 -3.9666891741962250e-03  -8.6178744744516559e-05 2.7331365832379930e-04 -4.6463041510390671e-03  5.8499097814649909e-04 -5.8112331252212354e-04 -3.5708330428928253e-04  6.3452998151738418e-04 -3.0738806732357143e-04 -2.7758775051892658e-03  2.1927320481199145e-04 -5.9675333172631506e-05 -4.1241356926150002e-03  3.6298359746699601e-04 -1.0416838601196407e-04 -3.4343181281646664e-03  1.4090795155883226e-04 -8.4344037146649460e-04 -2.3899904319591640e-03  -2.1878579844130058e-04 4.9392249622662494e-04 -1.5865667867500918e-02  -6.2917735999506823e-04 2.1031225885668110e-03 -1.4066602876974300e-02  -1.6278376556170756e-03 -1.9056024747580139e-03 -1.2246272456692560e-02  -6.9013567500304535e-03 2.0897943318515040e-03 -2.2326272859113889e-02  -2.3167214888934085e-02 2.1009254907931006e-02 -2.3182830476414954e-02  -3.9254668085778981e-02 7.8081366451529964e-03 5.4814810846553624e-03  1.7424216018390472e-02 -1.4803463973790249e-02 -1.6949283634464990e-02  1.7446345151828548e-02 -1.5683032338177208e-02 -1.0751165950365871e-02  1.3538554116766868e-02 -9.8419480370682544e-03 -1.1656170912897838e-02  -2.2343243880825380e-02 1.4687419983825962e-02 4.5294248923205903e-02  -3.0627023748570129e-02 3.4797635961994165e-03 -3.5512765029136806e-02  -3.2006360337829790e-02 -4.0918792943711764e-03 -2.7625443710461987e-02  -1.2409568750097336e-02 2.0835005475614270e-03 -1.5060375174892230e-02  -5.9148415061882641e-02 -2.1071213300208930e-03 1.0482357960857218e-01  -3.8425873867958533e-03 1.7226370706551558e-02 -1.3370774581261829e-02  4.4005613127507179e-04 1.0558554328148720e-02 -1.6842856568545252e-03  -1.1031734506726731e-03 -1.4649244590852567e-02 -9.1001935235104619e-03  -9.2703669026780698e-03 -3.1517047849253022e-03 -3.6396922484689696e-02  2.2672833449157923e-04 5.7041130972543891e-05 5.4008668366262360e-03  1.7309369447331398e-04 1.7325208396310168e-05 5.7031248410865081e-03  6.4503946170081270e-04 5.7119425400224520e-05 -4.3207089226750938e-03  2.8069100242252534e-02 -2.3321998361151786e-02 -2.3234187442655835e-02