<?xml version="1.0"?>
<VTKFile type="UnstructuredGrid"  version="0.1"  >
<UnstructuredGrid>
<Piece  NumberOfPoints="857" NumberOfCells="3763">
<Points>
<DataArray  type="Float64"  NumberOfComponents="3"  format="ascii">-0.0182597916573 0.126128911972 -0.119588643312  -0.0077641364187 0.0512270443141 -0.07050477713349999  -0.0237180162221 0.16240182519 -0.053058128804  -0.107877351344 0.105669431388 -0.0502408407629  -0.0444478429854 0.116080775857 -0.00235075876117  0.0393674038351 0.112876079977 -0.0491501875222  0.0248903874308 0.0489483103156 0.000152088920004  0.0314915925264 0.114928804338 0.0218031276017  -0.0657326281071 0.0685198307037 0.0497140102088  -0.0355357266963 0.164656624198 0.0508319064975  -0.010538729839 -0.0422629192472 -0.208358153701  -0.0239527057856 0.0135364839807 -0.242119863629  -0.0194642152637 -0.0775559768081 -0.263431429863  -0.08492307364939999 -0.0108216870576 -0.280446648598  -0.08293507993220001 -0.0361198186874 -0.159778758883  -0.0240796487778 -0.0824203491211 -0.148982465267  0.0430508553982 -0.121076337993 -0.234084427357  0.0307756774127 0.0324950888753 -0.198437720537  0.00352357281372 -0.00433266581967 -0.144715368748  -0.0456651262939 0.08372022956609999 0.342343091965  -0.116630032659 0.0117083769292 0.386158525944  -0.08223126828669999 0.0577075146139 0.289406776428  -0.0511222109199 0.00205342215486 0.300772219896  -0.0125984866172 0.0267426930368 0.351842552423  0.0303636882454 0.0561947338283 0.391145974398  -0.0524924062192 0.0543583929539 0.40361738205  -0.07944945245979999 0.130002260208 0.441037595272  -0.000730989675503 0.119443200529 0.385622620583  -0.078488714993 0.137875169516 0.332541137934  0.0142801422626 0.110509291291 0.27100610733  0.0224165506661 0.08303219079970001 0.331783413887  -0.0170432701707 0.161798536777 0.30022162199  0.000811119796708 -0.0515509881079 -0.08419398218390001  0.0888616070151 -0.015075173229 -0.0776951387525  -0.0989535748959 -0.0518730916083 -0.08125374466180001  -0.0433920919895 -0.09785594791170001 0.0106235472485  -0.0488061010838 0.0295096840709 -0.0131453983486  -0.25 0.25 0.5  -0.166666666667 0.25 0.5  -0.25 0.195066730511 0.445658150344  -0.19506166517 0.25 0.445542865294  -0.0213422998786 -0.126349791884 -0.045622177422  -0.117952652276 0.0158270020038 -0.16616243124  -0.0531469397247 0.0490713231266 -0.13630309701  0.0358348339796 -0.131537660956 -0.134171053767  0.0583617314696 -0.115307979286 -0.0462360456586  0.010585160926 -0.0606908276677 0.314250290394  0.078067921102 -0.133790805936 0.331458956003  0.0206208750606 -0.104583717883 0.36723652482  0.0300164371729 -0.13569638133 0.270959883928  0.0797956883907 -0.07311873137949999 0.388136893511  0.0291880238801 -0.0850581228733 0.220644980669  0.0788302049041 -0.07555303722620001 0.284453928471  -0.0465739220381 -0.108428947628 0.305151432753  -0.056692365557 -0.0812899768353 0.234353885055  0.10282895714 0.0630551427603 -0.0452189296484  0.178613707423 0.153893724084 -0.0703043565154  0.0750898644328 0.130835875869 -0.116260357201  0.0179002508521 -0.0400723591447 0.396018892527  0.07961820065980001 -0.020668130368 0.232235535979  -0.00726175494492 -0.022667773068 0.242156982422  0.0524490773678 0.0171752162278 0.310696065426  0.0103002395481 0.0813155695796 0.107229083776  0.00225681974553 -0.008687185123560001 0.0457225777209  0.177950121638 0.25 0.0405701099774  0.151375159621 0.202163234353 -0.00268407491967  0.13042794168 0.172564610839 0.0599601529539  0.184557154775 0.16295710206 -0.00737970136106  0.0827306732535 0.011830884032 0.0299163535237  0.106673434377 0.0676268041134 0.0663062110543  0.25 0.25 0  0.25 0.177947182503 0.0435581305687  0.0251978598535 -0.0201241951436 -0.0233656335622  -0.25 -0.25 0.25  -0.175495340629 -0.25 0.295351832328  -0.25 -0.175776260788 0.294629825204  -0.164853364229 -0.189889326692 0.246240898967  0.111295968676 0.25 -0.00354384794953  0.0417815256417 0.25 0.0264120515999  0.0577150444892 0.25 -0.0418173710713  0.035034801811 0.196921139956 -0.0497792549431  -0.115254960954 0.0352221727371 -0.0357825122774  0.0360979661345 0.0743419006467 -0.130612716079  0.08110298216340001 0.0143552683294 -0.135737240314  0.0281950440258 0.110801942647 -0.38559025526  -0.000352636008756 0.154027625918 -0.45018479228  0.0220217909664 0.07910815626379999 -0.445265561342  -0.041934799403 0.09297795593740001 -0.440330862999  -0.115356497467 0.128115877509 0.0303980205208  -0.08144567906859999 0.192924261093 -0.0396481454372  -0.0503155887127 -0.140062868595 0.370642662048  0.0181560348719 -0.191118896008 0.319997102022  -0.09442232549189999 -0.0766885429621 0.347179293633  -0.10306725651 -0.0245223585516 0.261891931295  -0.0371639840305 -0.192689821124 0.258922994137  -0.08778057992460001 -0.193450272083 0.293951839209  -0.116932563484 -0.137108251452 0.278956532478  -0.0434515699744 -0.19969072938 0.340430229902  -0.016621209681 -0.143479332328 0.208528921008  -0.0799133181572 -0.177766740322 0.206858798862  -0.0340202823281 -0.07231882214550001 0.405357718468  -0.153045728803 -0.0703692808747 0.28540495038  -0.0647673308849 -0.069349065423 -0.297796696424  -0.0468406006694 -0.118580199778 -0.331259429455  -0.0636249184608 -0.122360698879 -0.235275790095  -0.137311711907 -0.115820750594 -0.279358655214  -0.25 -0.25 0.333333333333  -0.00222280388698 -0.0275516584516 -0.327156513929  0.0233143884689 -0.124395690858 -0.330935031176  -0.00544846989214 -0.0444226972759 -0.392852008343  -0.07202984392639999 -0.0450558848679 -0.379192590714  -0.128861442208 -0.0482712239027 -0.325591087341  -0.0319190612757 0.25 0.27473160228  0.0259018652141 0.196524605155 0.343851953745  -0.0424101948738 0.196461260319 0.324036180973  -0.08801463991400001 0.193724930286 0.280150324106  -0.051391992718 0.129726842046 0.244459152222  0.0793330296874 0.131078347564 0.273738384247  0.0304427426308 0.197590425611 0.258007407188  0.139736711979 -0.103549621999 0.308288753033  0.117407329381 -0.00031748006586 0.284001767635  0.17845864594 0.0137020656839 0.2717012465  0.133446916938 -0.07468281686309999 0.252671837807  0.193237304688 0.0103836003691 0.32706490159  0.108656100929 -0.016409387812 0.370573759079  0.195593327284 -0.0705924406648 0.374003827572  0.204297035933 -0.0882691517472 0.283604085445  0.15987212956 -0.0232784096152 0.211559042335  0.103109702468 -0.0715631917119 0.185957938433  0.25 -0.177950121638 0.0405701099774  0.25 -0.111295968676 -0.00354384794953  0.168315500021 -0.181550845504 -0.0129796266556  0.203061833978 -0.0839376300573 0.0201103240252  -0.123973377049 0.0421161539853 0.0831994190812  0.10652089864 0.041568480432 0.133020982146  -0.00508088478819 0.00464248098433 0.118765294552  0.0384838804603 0.0542355030775 0.219570666552  0.0556482039392 0.09942726045850001 0.165778696537  0.25 -0.25 0  0.25 -0.17904445884 -0.0421267671166  0.0085972994566 0.139411628246 0.206887423992  -0.0427397117019 0.0734880268574 0.199836358428  0.25 -0.25 0.166666666667  0.177338154858 -0.25 0.209433902167  0.178222204231 -0.25 0.126578397361  0.180748909712 -0.154124230146 0.180074676871  0.118582360446 0.0498475395143 0.233844980597  0.113276541233 0.115120351315 0.208414897323  0.068451166153 0.123325429857 0.09300038218499999  0.08695217221980001 0.18308262527 0.11987875402  0.1366494596 0.0978636816144 0.125807240605  0.0170362386853 0.165571182966 0.116205818951  -0.075325883925 -0.13042730093 -0.120773427188  -0.191016584635 -0.1764793396 -0.0778442546725  -0.102759346366 -0.20253264904 -0.07015967369080001  -0.126150563359 -0.115044787526 -0.0573479756713  -0.138729035854 -0.104583211243 -0.134180948138  -0.147993162274 -0.138949289918 -0.203295826912  -0.180331096053 -0.192031860352 -0.160557568073  -0.194399222732 -0.0846866071224 -0.148938387632  -0.11259970814 -0.078034222126 -0.193649172783  0.0326924659312 -0.122268341482 0.0296003930271  0.0215157996863 -0.180560961366 -0.0757267251611  0.0956164896488 -0.0493310950696 -0.0164182558656  0.112129375339 -0.112067811191 -0.105549775064  0.127802968025 -0.106147237122 -0.0110959038138  -0.0854129120708 -0.015297700651 0.056893799454  -0.0204317308962 -0.0795602425933 0.117458000779  -0.178222204231 0.25 0.126578397361  -0.177947182503 0.25 0.0435581305687  -0.107976816083 0.25 0.0905854563709  -0.157577678561 0.178241759539 0.0969507619739  0.25 -0.25 0.333333333333  0.25 -0.25 0.25  0.175776260788 -0.25 0.294629825204  0.25 -0.175495340629 0.295351832328  0.0932372882962 -0.0430554822087 0.0724518448114  -0.044769000262 -0.00661279587075 0.403999477625  -0.194478780031 -0.0247275307775 0.332954645157  -0.173761367798 -0.0806607827544 0.396263659  -0.137637495995 0.00523930834606 0.315887242556  0.0864742994308 -0.139340251684 0.176064118743  0.105438224971 -0.136641919613 0.253711819649  0.0308670303835 -0.25 -0.136809572586  0.0367561832589 -0.25 -0.219583441074  0.0925811678171 -0.20055809617 -0.19996842742  0.0127155454829 -0.193433105946 -0.225977659225  0.0415658205748 -0.200880005956 0.196522325277  0.0373581312597 -0.119548290968 0.120048768818  -0.0954102815882 -0.25 0.346414074494  -0.101368582479 -0.25 0.251933327382  -0.0374909392175 -0.25 0.286229296012  0.0852289572358 0.109103307128 -0.27055695653  0.07707493752239999 0.127253636718 -0.199824258685  0.128097131848 0.07648140937090001 -0.209757223725  0.154867321253 0.13628205657 -0.212952241302  0.08678253740069999 0.189277544618 -0.274375885725  0.127699971199 0.0803090333939 -0.326344817877  0.0577741526067 0.0601542405784 -0.31936660409  0.0525139421225 0.129102528095 -0.326874881983  0.0251371748745 0.175572559237 -0.261228203773  0.0199144631624 0.0927290171385 -0.265960127115  -0.148952946067 -0.121583275497 -0.374568909407  -0.25 0.177950121638 0.0405701099774  -0.25 0.111295968676 -0.00354384794953  -0.175531774759 0.135734900832 0.0562076568604  -0.178730383515 0.191659659147 -0.00562386959791  -0.0244714934379 -0.108516678214 -0.387223660946  -0.09279609471560001 -0.170035287738 -0.445968538523  -0.0281062982976 -0.0
[...]
<PointData  Vectors="f_78"> 
<DataArray  type="Float64"  Name="f_78"  NumberOfComponents="3" format="ascii">9.4259412587242921e-06 -1.7763383379984292e-06 -4.5259818866562190e-03  -2.6195459493320583e-06 5.4694045079511198e-06 -4.2916688678888027e-03  -1.0965746366651825e-05 -2.4785117488525315e-05 -4.1044519341265307e-03  -7.8029527758542158e-06 6.2030632077292568e-07 -3.7231188444227753e-03  -3.4652411777031386e-06 -1.4413847469385206e-05 -4.5052026737026404e-03  8.1565771023685950e-06 4.4275403256863861e-05 -3.8938654415170940e-03  -4.1049845127027386e-06 1.4912737176826950e-05 -4.4117726164437264e-03  2.6384588292569329e-05 1.3327252696185980e-05 -4.0318146769247583e-03  -3.4362393194523048e-06 -1.3269315006399384e-05 -4.3313892262962905e-03  -2.7199739600805426e-05 5.0696798648876847e-05 -3.6555711037418127e-03  -3.3606659623394182e-06 1.2460368910852657e-05 -4.4284947749805908e-03  -9.0822772312099212e-07 5.4901772167324581e-06 -4.4041275201214631e-03  5.8463512796812496e-06 9.7817246794599509e-06 -4.3435177917976516e-03  -4.5859403221198797e-06 1.4535068604972598e-05 -4.4426210171490217e-03  1.9526191325734741e-05 1.9104756077266078e-05 -3.8713431365146509e-03  9.3728577460282921e-06 7.0216245112602080e-06 -4.1201502814400765e-03  1.7777389677259847e-05 -2.0251978667602311e-05 -3.7507024719591314e-03  2.6566111786054056e-06 8.9174056927017256e-06 -4.2854238890710616e-03  6.0541184580438780e-06 -7.9646869890644959e-06 -4.2788766559838575e-03  9.0206233657939876e-05 -1.4297306828084773e-04 -4.3532056102298326e-03  -1.7506165210742604e-04 -1.6033456276733288e-05 -4.6985817098602342e-03  -4.9952718519788263e-05 4.0146238318136084e-05 -4.2257886934451375e-03  -7.1764274813058282e-05 -1.3789433663646908e-05 -4.3870519292217320e-03  3.1436103832007881e-05 7.5031049503574031e-05 -4.4527032462004686e-03  6.6602996469273710e-05 6.8774877568843117e-05 -4.6402461438032521e-03  -7.8095334760261458e-07 9.0013760467994126e-05 -4.5010180136034472e-03  1.4291916932861895e-04 8.9610059909643467e-05 -4.0782786484567807e-03  5.4207675830214042e-06 1.1233225452664925e-04 -4.1943089596868906e-03  -4.0769845746386724e-05 1.1029616839878761e-04 -4.4296244603824354e-03  -2.6370496496272084e-05 5.9491740968082617e-05 -4.5494788266944161e-03  4.1077767748058555e-05 5.4262784514954129e-05 -4.0009291690227839e-03  -1.0294408443788113e-04 9.7333570068481811e-05 -3.9875548015554565e-03  -1.2896533383503369e-06 6.5791646632996327e-06 -4.4199174992172264e-03  -1.1204149021739743e-05 7.7690326548833729e-06 -4.2977573633757029e-03  -1.3539963559069621e-05 -3.2932937125878073e-06 -4.3184183864019253e-03  2.2700836872121969e-06 8.3831593450088700e-06 -4.2589274446127789e-03  -3.0931582543047204e-06 2.0200819210354175e-05 -4.3474382171149800e-03  4.7446312262344831e-06 -2.0270299007406611e-06 2.4142641290290578e-05  6.7843020859529809e-06 -1.2109079580291911e-05 3.4025382776922401e-06  8.8394203141053195e-06 2.4079788878558360e-06 1.0620913088087489e-05  -8.4058531827443793e-08 6.9289759131910348e-07 5.5370904254844556e-06  -2.0222096956669012e-05 3.6637695824222102e-05 -4.0733014623483277e-03  6.9979017742734657e-06 2.0608996031212189e-05 -4.3578708721215475e-03  3.2771941639809296e-06 1.2849521512454452e-05 -4.5875036840572472e-03  -1.1002209439320761e-05 -2.6189900522831247e-05 -4.1407355371341232e-03  -6.5105391309098218e-06 -1.3685743775545690e-05 -3.9543656113555838e-03  2.6020640892620686e-05 -3.3129293051691317e-06 -4.2715738681565214e-03  -5.1613868105137663e-05 -9.0731399247162172e-06 -4.3406372904464287e-03  -1.2251590136829127e-04 -7.7991684731595662e-05 -4.7085384105955775e-03  7.2774261630222254e-06 1.4169477103518748e-05 -3.8909078879431937e-03  1.3189425792387304e-04 -1.8156662895249748e-04 -4.1463818246616716e-03  1.2600704440415849e-05 -8.7385256352861635e-06 -4.3075122925392267e-03  5.0182522735695721e-05 -1.8326082855915682e-06 -4.1093733126851134e-03  -5.9719887033418691e-05 -7.0820033361791224e-05 -3.6906509093276832e-03  -3.9410791434631048e-06 1.2351600805215322e-05 -4.1867660207840799e-03  -1.9063242572270224e-05 6.5508180851105356e-06 -4.1624852668920818e-03  2.0624830076690734e-05 6.9218074689676726e-05 -3.2348863029562683e-03  -8.3282675764778499e-06 1.0194302124760283e-05 -4.0742572599884288e-03  -3.8033745634351436e-05 -1.3280588243245880e-05 -4.6381238383173149e-03  -6.8252107749939201e-06 -5.1584684379757460e-06 -4.3721616437017337e-03  -4.8711292757857444e-06 6.0369876763826909e-06 -4.3470147711479742e-03  5.5905042822509056e-05 2.5042068316799431e-05 -4.1831784116030295e-03  9.2473977192687615e-06 9.6773063829877863e-06 -4.2826499096115557e-03  -2.7754274809443857e-06 4.5767250098869470e-06 -4.5011102213439770e-03  -6.4306635093194769e-06 4.2538462352967283e-06 -4.9683811183993833e-07  4.4906219605729557e-05 6.5762775944633794e-05 -3.8253997516595611e-03  1.5848896156175199e-05 -1.5297130302989055e-04 -3.4500209134478614e-03  -3.0277312177786959e-05 8.8428400775675221e-05 -3.5316206599225902e-03  -1.1316170206014403e-05 1.8509482209721733e-05 -4.3320890848830042e-03  -2.8429327036625975e-05 -1.2649039570408461e-06 -4.0980034708914433e-03  -8.9029391456517427e-06 -8.0583069911661811e-06 -9.8647806160048213e-07  7.7915395727675904e-06 -1.5291152111555535e-06 -4.2118347257475628e-07  5.6565454492001056e-06 7.5677822094459806e-06 -4.5762618620774336e-03  4.5360147338335738e-06 6.0278547920286939e-06 -4.9953831127163834e-06  9.4709782882110173e-07 -2.8643493307523133e-06 3.5236589318182970e-06  -4.8861104631457702e-06 1.1818092864026008e-06 4.9513009990959539e-06  -5.0501942067785228e-05 -1.5336982126000481e-04 -2.9933797859406147e-03  -1.2189903706230513e-06 -7.9576145693601473e-07 1.5118905084875068e-06  -1.1050147941290170e-06 -2.5671537667561141e-06 1.0591111216154640e-07  -1.0935245625290262e-06 2.6981764325578024e-06 1.2073053302851957e-06  -4.7626347704829489e-05 4.5691984726225190e-05 -3.6881855357478685e-03  -5.2056323557606032e-05 -2.0071897505281975e-05 -4.0796469929458498e-03  6.2348250414386662e-06 -2.3447122984456254e-07 -4.5886546194104719e-03  2.5552075191789852e-05 -7.1016724358240447e-06 -4.0930665815724684e-03  -4.8920592416462607e-06 -2.6986598390922312e-05 -3.9504042803357887e-03  -1.3457413930738944e-05 -2.5955086099670052e-05 -3.3042598857272831e-03  1.4993664267369909e-05 -8.9913499441482635e-06 -4.2788240833822478e-03  1.1183498063259560e-05 -5.3190579415937915e-05 -4.3645124364612188e-03  -6.1188576700549698e-05 -5.0364068096171294e-05 -4.4149382776355528e-03  -2.0346774175040346e-05 -1.0302452457823572e-04 -3.2899572058054300e-03  1.0933038479120270e-04 -1.2976785797180090e-04 -4.0829000619248320e-03  -1.8991196264936440e-05 1.7137327309130149e-05 -3.6287199343852552e-03  -1.3093557074449872e-04 -7.3599349985150779e-06 -4.1183793970807460e-03  1.1253969484851804e-05 -3.9121173268847939e-05 -4.1512799781685591e-03  -2.7140417617549135e-05 6.2402206110551522e-05 -3.7694702218147146e-03  -3.1677202032579619e-05 -1.3585036980068619e-04 -3.1544269387662575e-03  2.0592172675899148e-05 -2.9911461053976283e-05 -4.2045723088638765e-03  1.3931742964652378e-04 6.3079624196257450e-05 -3.7683867498688743e-03  2.0731877504403174e-05 -9.6352801941475229e-07 -4.0991108071660939e-03  9.6536309104264742e-06 9.5230182606122912e-05 -3.6740524777782477e-03  -1.3733418007567396e-04 8.0142538754014958e-05 -4.3430082927476306e-03  7.7233826168060841e-06 -6.2196768344768283e-06 -2.8848485628344216e-03  3.3527464086962164e-05 1.3413764346053273e-05 -4.0039398669947553e-03  2.2341199034205995e-05 1.8157330937724431e-05 -4.3990257199393226e-03  2.8179592699400967e-07 -6.1182308291069439e-06 -3.7132239783836383e-03  -2.2950150398204082e-05 5.1926746157019161e-06 -3.4840009142135283e-03  4.6254058102642348e-06 3.4163804913728174e-06 -1.3717485762302845e-06  1.7795692999857011e-05 1.2260772749952925e-05 -4.3076875711889279e-03  1.1141186000907004e-05 1.8235493589721607e-05 -4.5756650955265056e-03  1.0563574335279932e-05 2.7568688546270883e-05 -4.4113201135903782e-03  1.7498365424593225e-05 2.3179956910569354e-05 -4.3293479235681108e-03  2.3325242384183841e-05 9.0489404469133330e-06 -2.9385716208970621e-03  1.6938197920592563e-06 2.0266370553779706e-07 6.2075960737199946e-07  6.3430999975368766e-05 5.8190890839305918e-05 -3.9627182594207779e-03  -2.3449427268863358e-04 -1.6629651926035836e-05 -3.5848111487715223e-03  2.2759073869164928e-04 -1.4713746016352765e-04 -3.8119018914837869e-03  -3.7503912659199113e-05 2.6131454170085628e-05 -4.5595973900008600e-03  -5.2080200914025726e-07 2.5796642443414888e-05 -3.6886868229519215e-03  1.5371389420314089e-05 -3.8028725773635231e-05 -4.3277429888455149e-03  2.1408833754076190e-06 -9.6974849083416099e-06 -4.2248559432740739e-03  -1.4731324891765606e-06 2.5411004290332017e-05 -4.1350696485223061e-03  1.5089552148059818e-05 -3.6979245310024057e-05 -2.8751642935427061e-03  -1.0792778618170348e-05 6.1834288929186345e-06 -3.6812391203659210e-03  -1.0261686053220338e-04 -2.6184609384022778e-05 -3.3033871846202228e-03  7.0361659865148701e-05 4.9517780239554267e-05 -4.5572395273805067e-03  1.5252751985838506e-04 3.8557869803550749e-05 -4.0702122232257080e-03  5.0414396175078829e-05 1.2624628591121825e-05 -4.1622173765523806e-03  -6.5458937017446228e-05 1.4891616446400168e-05 -3.9343861643411342e-03  -7.2725652890959428e-06 -2.8833656121518261e-05 -3.3775079135222605e-03  8.6666004317618610e-06 2.5078698483927180e-07 -1.0147454429760785e-06  -2.3632273796508703e-06 -3.8246635314484565e-06 2.0426984896975662e-06  -1.6286799518224057e-04 8.4155478660222444e-05 -3.9453257516436245e-03  7.3614959350392696e-05 -1.0374115802244053e-04 -3.0211998814790191e-03  3.5563837677020547e-05 2.4276165939467973e-05 -4.3455291284274266e-03  4.7084964805239312e-06 3.2341476131874042e-06 -3.9839166744197645e-03  2.3719623316088377e-06 3.9537555030654072e-06 -4.3814971655034918e-03  -7.5432156593839340e-06 1.5254169912645441e-05 -4.4512455907089457e-03  9.6817681604224517e-06 -2.5390892488152361e-05 -4.1017085327630055e-03  -6.5204121155543266e-06 3.7506191930986605e-06 4.0169164503389824e-06  6.2928979271758653e-06 1.9718850806637077e-06 4.9632105425474606e-07  -4.7253575455639774e-05 1.9054761516056208e-05 -3.7737825557629437e-03  1.3325871773594890e-05 3.0877251379979986e-05 -4.1519645585433845e-03  -6.8080982725866393e-08 3.9849764321141801e-06 3.9666191961011146e-06  7.2873859014121089e-07 -1.1447353528236225e-05 2.3331000402527490e-06  -2.5138166197014274e-06 -7.6078939416784467e-06 -5.9125571275105048e-07  -5.2808762154868378e-05 5.0908650459423324e-05 -3.5365908345929759e-03  1.0518555073395025e-05 1.9476739730391224e-05 -4.1570936431618516e-03  9.5181211076857536e-06 -8.4453900755840870e-06 -3.6661849547013118e-03  -3.4721281899981231e-05 1.5005362706613924e-05 -4.2977012888172532e-03  -9.9176416068492387e-06 -5.9164006360578640e-05 -4.0760932359589341e-03  -2.3897609229251555e-06 -5.3284076246165326e-05 -3.1522610975692634e-03  4.8458737289129626e-05 -3.0547890185584043e-05 -3.0494452823016508e-03  -9.6902956307709472e-06 3.5674091435406153e-05 -3.9349334832041241e-03  -1.1410142935332187e-04 -1.2124701847727814e-04 -3.7328660829747885e-03  4.4085214856279363e-05 -3.2949736020087521e-05 -3.4653316211628819e-03  -2.7157393816202990e-05 2.2198641332022494e-06 -3.7027848779842380e-03  1.6250524025740866e-05 2.4975032569222107e-05 -3.0087492501153336e-03  4.6231176075448504e-05 -1.4114798630281299e-05 -3.7061747056658561e-03  4.0419629794330030e-05 -1.9892879409491952e-05 -3.4625703563008490e-03  1.3067896745636151e-04 1.2626602615367134e-04 -4.2391274598544320e-03  4.2330433167463924e-05 -2.1414085334375351e-08 -3.9221164700912773e-03  -1.3500517104124116e-05 -1.7529583699113987e-05 -4.1746071381541022e-03  -5.9661109477146759e-05 5.0112764378986034e-05 -3.1099015728888600e-03  9.6473059107024779e-06 -1.2894517141255244e-05 -4.0134850153419601e-03  4.9539787859236140e-06 -2.1606941927371536e-05 -3.7403881629102815e-03  1.2098223063516641e-05 -4.9436171320667778e-06 -4.3078544038542598e-03  2.5030401552644088e-05 -1.4626685247318171e-05 -4.2153221144323773e-03  -5.4196204092900025e-06 6.7595647983109143e-07 -4.4265722249819065e-03  1.4376145931684587e-06 7.6983979389131208e-06 -2.0930717281972344e-06  1.6306876288635087e-06 7.0872117543014240e-06 -1.1886989291984668e-07  1.9791870573472403e-06 -9.0989756738792064e-06 1.7050343170965736e-07  -9.9853761343923840e-06 1.8111337478623826e-05 -3.1121972981654521e-03  -2.7452568485261726e-06 2.5806526444468004e-06 -2.7687451252492752e-07  -9.7876300014508722e-06 8.7485523329636675e-06 8.3946829810185418e-07  -1.1165917894978993e-06 -9.4155086774567497e-06 2.0789057922781308e-06  8.2355494472139297e-06 1.7394146776143541e-06 -2.6419308825430443e-08  -1.6113543596867274e-05 1.2786622835611386e-05 -4.0554637185593271e-03  -1.9012913062021115e-06 5.2311148446027329e-05 -4.6067462305313814e-03  1.2006738869724338e-04 -1.4436123394320945e-04 -3.2195496350302241e-03  -2.3628597406189902e-04 -5.1669730021150358e-05 -3.8701577958790583e-03  4.5721758115455393e-05 -2.5796245124321769e-05 -3.2409740274052107e-03  7.0346601270187902e-05 6.5206276371245847e-05 -3.0996994523902212e-03  -8.5911521073192069e-06 -7.3278827743769712e-05 -3.8872302323386993e-03  3.3781587677854675e-07 4.3915296073671194e-07 5.3398083590991501e-07  1.8734663774104080e-06 7.2311963580073074e-06 -1.8561401190570176e-08  9.8413654349195685e-05 -4.2334902646347815e-05 -3.6773712819733700e-03  -5.5291189416733081e-05 1.1437379846930852e-04 -1.6394185475284309e-03  -1.8679967321687041e-05 -1.6647304731878693e-05 -4.3056148194840875e-03  1.1688889140172685e-07 3.5542389017180651e-05 -4.1057192425514137e-03  4.6478297850606498e-07 3.9311503128902544e-06 3.0330846669203376e-06  -3.0170568112714338e-06 -1.4850621149727070e-06 4.7141237906891896e-06  -3.3337461512819376e-06 -1.4573647541864382e-06 6.1624544289411020e-07  3.8659239566450503e-05 -1.3467422089336873e-06 -3.8100322461178072e-03  -9.3675609014528292e-06 -4.2507127262031898e-05 -3.8679769129215820e-03  1.4801387368995785e-05 -8.1776810026013409e-06 -3.9213105442485454e-03  -2.8371574033390849e-06 1.1363071174855482e-05 -3.1738347900078434e-03  5.5333674308266627e-05 -1.4370689019659830e-06 -3.1317307337321615e-03  -5.2738076161333076e-06 1.3285893221904240e-05 -4.7070007690020203e-03  6.5830765858219241e-06 4.4197035367630720e-06 -4.3619498555351370e-03  -4.4548712398251048e-06 -9.1163726572488082e-06 -3.6332154198392415e-03  -6.1651102177878825e-05 -2.8381673931086818e-05 -3.3138558681796381e-03  -4.2815911453510149e-06 7.5570927541384617e-06 -4.5079937345150894e-03  1.8495403201586808e-05 -5.3262877322606571e-05 -3.7159660770419451e-03  -4.3447976529467531e-06 -3.7170319109292202e-06 2.1554663911257735e-07  -1.6827637612650717e-06 2.9949144872031052e-07 7.3036031701183217e-07  2.1223490818982521e-04 -1.5381949690571834e-04 -3.4043020461787003e-03  -1.5895897452456107e-04 5.5134638004174601e-05 -3.4921032046654555e-03  -1.3220594760511290e-05 4.9117779932757284e-05 -3.8648357903081154e-03  -1.7330234734850173e-06 6.4251988306373499e-05 -4.0924478264719524e-03  9.4651366194749053e-06 4.7231331617397004e-05 -4.4571018819947661e-03  6.8133050708784388e-06 -1.0411938078676128e-05 -2.1007622864748455e-06  -1.2335543121966524e-05 -4.9508958494658900e-08 4.1023796795065591e-06  -1.1823869620212072e-05 -5.7471682806438431e-05 -4.1624550867218144e-03  7.0336779717010886e-05 3.2920203913917061e-06 -3.1031476595652675e-03  -2.1105215535607840e-05 -1.0753196942931771e-05 -3.3098172548174519e-03  -4.4781185062169206e-05 5.0631690727765156e-05 -4.3912690716047687e-03  8.2087333845658466e-06 3.5456890670455785e-06 -4.3367531666963317e-03  1.6585060046816568e-06 3.8467110186938957e-07 -5.6459382526678887e-06  1.6521549402265223e-07 6.4938562737608574e-07 -3.3670097698949698e-06  3.7877485392813654e-07 -1.3723169458396065e-06 6.0252927845185466e-07  1.4681452305292160e-05 5.1749208219450574e-05 -3.8729032382530120e-03  1.0918324754260528e-05 4.4514866120618950e-06 -4.1441799981099623e-03  4.3470790314263686e-06 1.0052007737996506e-05 -4.4048807163024287e-03  -4.8516026100465157e-07 6.8788963626470295e-06 -3.6621899520362421e-03  2.5678502066701524e-05 6.2146740291333311e-06 -4.4906409357407667e-03  -2.7375799720008905e-05 -1.5050522994601516e-05 -4.3525480001491857e-03  3.3169121799006872e-06 7.4523179948868171e-07 -4.0633398345806000e-03  2.4233667517300210e-06 -5.9288498475101544e-06 -5.1604938794568340e-07  -3.6393356778747989e-06 1.9065977952904250e-06 7.0027172387468552e-07  -1.2235801950659139e-04 -1.3162424974580443e-05 -3.7292730345098047e-03  2.0595130891202647e-05 5.7503748496194138e-05 -3.3388812864425907e-03  4.0520082283484075e-05 -2.5596377330526386e-05 -3.4535728329483815e-03  3.2786075812767442e-05 -1.6763953040893689e-05 -4.0309234346611687e-03  -1.5624481645976728e-05 -8.5680978759298340e-06 -4.2584909867240369e-03  -7.4556891980416897e-06 -3.1787768156703054e-05 -3.5185459687825751e-03  1.7494444970737742e-05 -1.7021245114653610e-06 -4.1047078354793549e-03  -4.8542741746795743e-05 4.9534313668688791e-05 -3.0383473638689131e-03  -8.1308781081391312e-05 3.8642143146554432e-05 -3.4359465069744408e-03  3.0446287295924988e-05 6.4798933088711616e-07 -4.3231139600730974e-03  6.6711764444084184e-05 2.6833290077962426e-05 -4.6962648102887618e-03  3.8446190782514824e-05 2.7052002609904469e-08 -3.9761928531716678e-03  2.1756493076038733e-06 8.1076644188013734e-06 -4.2540212769043642e-03  3.0728895523992711e-05 -2.6232908998758293e-05 -4.4154648319325767e-03  1.8546719269999408e-05 -4.4489918792957752e-05 -4.4357822468669835e-03  1.2252757861214948e-05 -2.9448986508468431e-06 -4.4250334461338253e-03  2.4987207861766583e-05 1.3571325508239640e-05 -3.5411897674924651e-03  -1.5632630068394267e-05 1.7028375972624944e-05 -3.9171936664688023e-03  1.7721336917994868e-05 -7.4875278936344854e-06 -2.8861767936627799e-03  1.8407121633509747e-05 1.5000074368129780e-05 -3.6219142121395520e-03  5.5642374947278807e-06 -5.0594569360482965e-05 -4.2882515789285629e-03  -6.2033038263617854e-05 -8.2205606759513757e-05 -4.2530219540100949e-03  -2.4442587678794599e-05 4.4119526877614666e-05 -4.8585057938448266e-03  -4.8369077356690983e-05 4.1654581233014157e-05 -2.8016406015639521e-03  4.3742597522758529e-05 -2.8139119029907590e-05 -4.5561920350637563e-03  -1.4814501308110638e-05 -9.1345131979737279e-05 -2.4403005744685819e-03  6.0147055760115443e-05 3.8593126697705617e-06 -3.7612151233943946e-03  -2.0639344685091199e-05 7.1424834262132791e-05 -3.1333034591195523e-03  5.1382083316695384e-05 -1.7734134326379477e-04 -4.7745559368877347e-03  4.3622816478543111e-05 2.8442359004220523e-05 -3.5797698333478135e-03  -2.1928407061428540e-04 -3.7239132069175000e-05 -4.0623898556553682e-03  -1.2544235232755477e-04 8.3325733612546680e-05 -3.9217793173555058e-03  3.4788623651551557e-06 1.0194727924669126e-05 1.0442820595628165e-06  -8.6319089689314993e-07 -1.2921016044833229e-05 -3.6851352925499599e-07  -5.3972456335200151e-06 5.8644669443786558e-06 1.8580884975639672e-07  3.7475358697653654e-05 -4.0483143191822540e-05 -3.7114064755601160e-03  -7.5966528652045572e-05 -8.1655987835785153e-05 -4.1127670577162396e-03  5.0356187012731571e-05 1.3588047753606623e-04 -4.3283407950519990e-03  -1.0953679262234864e-04 -1.7567935605651070e-04 -4.0185214710519689e-03  -1.1044760714796241e-04 1.0195478046920728e-04 -4.2795748317730909e-03  -2.2418854155417638e-05 -8.5520770692654631e-06 -4.3320447968738709e-03  1.0362044869113382e-04 3.5490009593174075e-05 -4.0936995642488743e-03  4.0741419575339959e-04 -4.1847468833881386e-05 -3.3661254489613470e-03  2.7659281684187437e-05 9.7455612126399137e-06 -4.0548365736974793e-03  1.5956188756124107e-06 4.8311892287575735e-06 -5.2038262365067764e-06  -1.8964235575030500e-07 3.4025816375008587e-06 -5.1067538999009632e-06  1.8959001721417401e-05 1.5092196492583464e-04 -4.5126312804902521e-03  5.9237490643314980e-06 -3.1674738276814052e-06 -4.1413089982097934e-06 