<?xml version="1.0"?>
<VTKFile type="UnstructuredGrid"  version="0.1"  >
<UnstructuredGrid>
<Piece  NumberOfPoints="857" NumberOfCells="3763">
<Points>
<DataArray  type="Float64"  NumberOfComponents="3"  format="ascii">-0.0182597916573 0.126128911972 -0.119588643312  -0.0077641364187 0.0512270443141 -0.07050477713349999  -0.0237180162221 0.16240182519 -0.053058128804  -0.107877351344 0.105669431388 -0.0502408407629  -0.0444478429854 0.116080775857 -0.00235075876117  0.0393674038351 0.112876079977 -0.0491501875222  0.0248903874308 0.0489483103156 0.000152088920004  0.0314915925264 0.114928804338 0.0218031276017  -0.0657326281071 0.0685198307037 0.0497140102088  -0.0355357266963 0.164656624198 0.0508319064975  -0.010538729839 -0.0422629192472 -0.208358153701  -0.0239527057856 0.0135364839807 -0.242119863629  -0.0194642152637 -0.0775559768081 -0.263431429863  -0.08492307364939999 -0.0108216870576 -0.280446648598  -0.08293507993220001 -0.0361198186874 -0.159778758883  -0.0240796487778 -0.0824203491211 -0.148982465267  0.0430508553982 -0.121076337993 -0.234084427357  0.0307756774127 0.0324950888753 -0.198437720537  0.00352357281372 -0.00433266581967 -0.144715368748  -0.0456651262939 0.08372022956609999 0.342343091965  -0.116630032659 0.0117083769292 0.386158525944  -0.08223126828669999 0.0577075146139 0.289406776428  -0.0511222109199 0.00205342215486 0.300772219896  -0.0125984866172 0.0267426930368 0.351842552423  0.0303636882454 0.0561947338283 0.391145974398  -0.0524924062192 0.0543583929539 0.40361738205  -0.07944945245979999 0.130002260208 0.441037595272  -0.000730989675503 0.119443200529 0.385622620583  -0.078488714993 0.137875169516 0.332541137934  0.0142801422626 0.110509291291 0.27100610733  0.0224165506661 0.08303219079970001 0.331783413887  -0.0170432701707 0.161798536777 0.30022162199  0.000811119796708 -0.0515509881079 -0.08419398218390001  0.0888616070151 -0.015075173229 -0.0776951387525  -0.0989535748959 -0.0518730916083 -0.08125374466180001  -0.0433920919895 -0.09785594791170001 0.0106235472485  -0.0488061010838 0.0295096840709 -0.0131453983486  -0.25 0.25 0.5  -0.166666666667 0.25 0.5  -0.25 0.195066730511 0.445658150344  -0.19506166517 0.25 0.445542865294  -0.0213422998786 -0.126349791884 -0.045622177422  -0.117952652276 0.0158270020038 -0.16616243124  -0.0531469397247 0.0490713231266 -0.13630309701  0.0358348339796 -0.131537660956 -0.134171053767  0.0583617314696 -0.115307979286 -0.0462360456586  0.010585160926 -0.0606908276677 0.314250290394  0.078067921102 -0.133790805936 0.331458956003  0.0206208750606 -0.104583717883 0.36723652482  0.0300164371729 -0.13569638133 0.270959883928  0.0797956883907 -0.07311873137949999 0.388136893511  0.0291880238801 -0.0850581228733 0.220644980669  0.0788302049041 -0.07555303722620001 0.284453928471  -0.0465739220381 -0.108428947628 0.305151432753  -0.056692365557 -0.0812899768353 0.234353885055  0.10282895714 0.0630551427603 -0.0452189296484  0.178613707423 0.153893724084 -0.0703043565154  0.0750898644328 0.130835875869 -0.116260357201  0.0179002508521 -0.0400723591447 0.396018892527  0.07961820065980001 -0.020668130368 0.232235535979  -0.00726175494492 -0.022667773068 0.242156982422  0.0524490773678 0.0171752162278 0.310696065426  0.0103002395481 0.0813155695796 0.107229083776  0.00225681974553 -0.008687185123560001 0.0457225777209  0.177950121638 0.25 0.0405701099774  0.151375159621 0.202163234353 -0.00268407491967  0.13042794168 0.172564610839 0.0599601529539  0.184557154775 0.16295710206 -0.00737970136106  0.0827306732535 0.011830884032 0.0299163535237  0.106673434377 0.0676268041134 0.0663062110543  0.25 0.25 0  0.25 0.177947182503 0.0435581305687  0.0251978598535 -0.0201241951436 -0.0233656335622  -0.25 -0.25 0.25  -0.175495340629 -0.25 0.295351832328  -0.25 -0.175776260788 0.294629825204  -0.164853364229 -0.189889326692 0.246240898967  0.111295968676 0.25 -0.00354384794953  0.0417815256417 0.25 0.0264120515999  0.0577150444892 0.25 -0.0418173710713  0.035034801811 0.196921139956 -0.0497792549431  -0.115254960954 0.0352221727371 -0.0357825122774  0.0360979661345 0.0743419006467 -0.130612716079  0.08110298216340001 0.0143552683294 -0.135737240314  0.0281950440258 0.110801942647 -0.38559025526  -0.000352636008756 0.154027625918 -0.45018479228  0.0220217909664 0.07910815626379999 -0.445265561342  -0.041934799403 0.09297795593740001 -0.440330862999  -0.115356497467 0.128115877509 0.0303980205208  -0.08144567906859999 0.192924261093 -0.0396481454372  -0.0503155887127 -0.140062868595 0.370642662048  0.0181560348719 -0.191118896008 0.319997102022  -0.09442232549189999 -0.0766885429621 0.347179293633  -0.10306725651 -0.0245223585516 0.261891931295  -0.0371639840305 -0.192689821124 0.258922994137  -0.08778057992460001 -0.193450272083 0.293951839209  -0.116932563484 -0.137108251452 0.278956532478  -0.0434515699744 -0.19969072938 0.340430229902  -0.016621209681 -0.143479332328 0.208528921008  -0.0799133181572 -0.177766740322 0.206858798862  -0.0340202823281 -0.07231882214550001 0.405357718468  -0.153045728803 -0.0703692808747 0.28540495038  -0.0647673308849 -0.069349065423 -0.297796696424  -0.0468406006694 -0.118580199778 -0.331259429455  -0.0636249184608 -0.122360698879 -0.235275790095  -0.137311711907 -0.115820750594 -0.279358655214  -0.25 -0.25 0.333333333333  -0.00222280388698 -0.0275516584516 -0.327156513929  0.0233143884689 -0.124395690858 -0.330935031176  -0.00544846989214 -0.0444226972759 -0.392852008343  -0.07202984392639999 -0.0450558848679 -0.379192590714  -0.128861442208 -0.0482712239027 -0.325591087341  -0.0319190612757 0.25 0.27473160228  0.0259018652141 0.196524605155 0.343851953745  -0.0424101948738 0.196461260319 0.324036180973  -0.08801463991400001 0.193724930286 0.280150324106  -0.051391992718 0.129726842046 0.244459152222  0.0793330296874 0.131078347564 0.273738384247  0.0304427426308 0.197590425611 0.258007407188  0.139736711979 -0.103549621999 0.308288753033  0.117407329381 -0.00031748006586 0.284001767635  0.17845864594 0.0137020656839 0.2717012465  0.133446916938 -0.07468281686309999 0.252671837807  0.193237304688 0.0103836003691 0.32706490159  0.108656100929 -0.016409387812 0.370573759079  0.195593327284 -0.0705924406648 0.374003827572  0.204297035933 -0.0882691517472 0.283604085445  0.15987212956 -0.0232784096152 0.211559042335  0.103109702468 -0.0715631917119 0.185957938433  0.25 -0.177950121638 0.0405701099774  0.25 -0.111295968676 -0.00354384794953  0.168315500021 -0.181550845504 -0.0129796266556  0.203061833978 -0.0839376300573 0.0201103240252  -0.123973377049 0.0421161539853 0.0831994190812  0.10652089864 0.041568480432 0.133020982146  -0.00508088478819 0.00464248098433 0.118765294552  0.0384838804603 0.0542355030775 0.219570666552  0.0556482039392 0.09942726045850001 0.165778696537  0.25 -0.25 0  0.25 -0.17904445884 -0.0421267671166  0.0085972994566 0.139411628246 0.206887423992  -0.0427397117019 0.0734880268574 0.199836358428  0.25 -0.25 0.166666666667  0.177338154858 -0.25 0.209433902167  0.178222204231 -0.25 0.126578397361  0.180748909712 -0.154124230146 0.180074676871  0.118582360446 0.0498475395143 0.233844980597  0.113276541233 0.115120351315 0.208414897323  0.068451166153 0.123325429857 0.09300038218499999  0.08695217221980001 0.18308262527 0.11987875402  0.1366494596 0.0978636816144 0.125807240605  0.0170362386853 0.165571182966 0.116205818951  -0.075325883925 -0.13042730093 -0.120773427188  -0.191016584635 -0.1764793396 -0.0778442546725  -0.102759346366 -0.20253264904 -0.07015967369080001  -0.126150563359 -0.115044787526 -0.0573479756713  -0.138729035854 -0.104583211243 -0.134180948138  -0.147993162274 -0.138949289918 -0.203295826912  -0.180331096053 -0.192031860352 -0.160557568073  -0.194399222732 -0.0846866071224 -0.148938387632  -0.11259970814 -0.078034222126 -0.193649172783  0.0326924659312 -0.122268341482 0.0296003930271  0.0215157996863 -0.180560961366 -0.0757267251611  0.0956164896488 -0.0493310950696 -0.0164182558656  0.112129375339 -0.112067811191 -0.105549775064  0.127802968025 -0.106147237122 -0.0110959038138  -0.0854129120708 -0.015297700651 0.056893799454  -0.0204317308962 -0.0795602425933 0.117458000779  -0.178222204231 0.25 0.126578397361  -0.177947182503 0.25 0.0435581305687  -0.107976816083 0.25 0.0905854563709  -0.157577678561 0.178241759539 0.0969507619739  0.25 -0.25 0.333333333333  0.25 -0.25 0.25  0.175776260788 -0.25 0.294629825204  0.25 -0.175495340629 0.295351832328  0.0932372882962 -0.0430554822087 0.0724518448114  -0.044769000262 -0.00661279587075 0.403999477625  -0.194478780031 -0.0247275307775 0.332954645157  -0.173761367798 -0.0806607827544 0.396263659  -0.137637495995 0.00523930834606 0.315887242556  0.0864742994308 -0.139340251684 0.176064118743  0.105438224971 -0.136641919613 0.253711819649  0.0308670303835 -0.25 -0.136809572586  0.0367561832589 -0.25 -0.219583441074  0.0925811678171 -0.20055809617 -0.19996842742  0.0127155454829 -0.193433105946 -0.225977659225  0.0415658205748 -0.200880005956 0.196522325277  0.0373581312597 -0.119548290968 0.120048768818  -0.0954102815882 -0.25 0.346414074494  -0.101368582479 -0.25 0.251933327382  -0.0374909392175 -0.25 0.286229296012  0.0852289572358 0.109103307128 -0.27055695653  0.07707493752239999 0.127253636718 -0.199824258685  0.128097131848 0.07648140937090001 -0.209757223725  0.154867321253 0.13628205657 -0.212952241302  0.08678253740069999 0.189277544618 -0.274375885725  0.127699971199 0.0803090333939 -0.326344817877  0.0577741526067 0.0601542405784 -0.31936660409  0.0525139421225 0.129102528095 -0.326874881983  0.0251371748745 0.175572559237 -0.261228203773  0.0199144631624 0.0927290171385 -0.265960127115  -0.148952946067 -0.121583275497 -0.374568909407  -0.25 0.177950121638 0.0405701099774  -0.25 0.111295968676 -0.00354384794953  -0.175531774759 0.135734900832 0.0562076568604  -0.178730383515 0.191659659147 -0.00562386959791  -0.0244714934379 -0.108516678214 -0.387223660946  -0.09279609471560001 -0.170035287738 -0.445968538523  -0.0281062982976 -0.0
[...]
<PointData  Vectors="f_104"> 
<DataArray  type="Float64"  Name="f_104"  NumberOfComponents="3" format="ascii">-9.3691964104344815e-05 -2.3504704063619577e-04 1.5262875235306533e-01  -3.0709393850713874e-04 -1.5062800111913011e-04 1.8723170364009556e-01  1.6345327785223225e-06 3.6703389998530392e-06 1.2426569222715168e-01  -2.1256852388047928e-04 3.3276442468633584e-04 1.4090036161334560e-01  2.6579664984635669e-04 2.8987935934041018e-04 1.5447092042643989e-01  5.8770939709263683e-04 8.7583418552111890e-04 1.5789528969666852e-01  7.3032128730064506e-05 2.5672529326136297e-04 1.8592643130918798e-01  5.1466529366967927e-04 5.1275853080135446e-04 1.5760938201465541e-01  6.8592851062742867e-06 4.8900487819686378e-04 1.7057201041486622e-01  -3.1497675796910156e-04 2.5755764076127965e-04 1.2037328646710760e-01  3.4100173985422618e-04 -6.4782756635120312e-05 1.8997625438947532e-01  -2.5497612787247852e-05 -3.6091422046816844e-05 1.9315943350915382e-01  -6.5420809131181876e-05 -1.7208574102510235e-04 1.7924169522766564e-01  -1.2598317535518619e-04 5.4928171823608903e-05 1.7737585002488790e-01  -2.9264549025517371e-04 -4.2505568363718210e-04 1.7428035127101896e-01  4.2739022606108322e-05 -1.1517026073012212e-05 1.7548604782879024e-01  3.2640532289003259e-05 -1.9081090099060214e-04 1.5508433394250132e-01  -2.3708622553935019e-06 3.3939379141948681e-04 1.8975016296304478e-01  1.2901537379116977e-04 8.6612862553242905e-05 1.9399623502091001e-01  -4.8912993158588651e-03 9.1659152833712416e-03 1.5174107710234672e-01  -1.3800309732594669e-02 1.0009111677571627e-03 1.3506758972802774e-01  -4.8765999091525845e-03 3.6965879197419504e-03 1.5694750929061740e-01  -2.7377826833796595e-03 4.4610100304778226e-04 1.6762006623586409e-01  -4.8437173424327755e-04 2.8009263591449026e-03 1.5938301027633656e-01  6.4388067343194005e-03 8.2813022505946552e-03 1.4603540883601382e-01  -9.3201500782727938e-03 9.0688899456014393e-03 1.4032467112204097e-01  -1.2764176486916391e-02 1.7369069919996486e-02 1.2048010620095841e-01  7.0914322558944174e-05 1.5108986543049553e-02 1.3650486546937998e-01  -7.6164078612508939e-03 1.0504533396221628e-02 1.3122984309173907e-01  -1.6823243573629390e-04 4.8522509702889037e-03 1.5516202250659566e-01  3.6997704095712062e-03 8.1388514144088778e-03 1.5721216113977851e-01  -1.6818837287884616e-03 6.8772375451771348e-03 1.2088500140924678e-01  2.8191597375033827e-04 -8.7171708035396165e-05 1.8745050600761604e-01  2.2248425462635210e-04 -4.5697353985461951e-04 1.7406728602901039e-01  -1.7445727179861927e-04 -9.3214826518107081e-05 1.6427574352912427e-01  -7.1785534575024949e-04 -9.8085122480132285e-05 1.6482045094641953e-01  9.8802138169340844e-05 -6.5598574359504631e-04 1.8477502833206258e-01  -1.2129533175973128e-02 9.8368086411437239e-03 1.3205636750214417e-01  -8.9119761778795794e-03 3.4377825291832080e-03 1.2188526063506848e-01  -1.0001875443921514e-02 1.1267425854281806e-02 2.6668260948667703e-02  -9.0587808189550763e-03 7.6290389231782199e-03 2.8572747168887348e-02  -5.5451629389442953e-04 -1.7047350452962747e-04 1.5126332630612935e-01  -5.2968538863292349e-04 4.9718560491967135e-04 1.5992530717070952e-01  3.2112092061077337e-04 1.3105092046833476e-04 1.8104332443565041e-01  2.0519721574769560e-04 -4.1439578844096105e-06 1.4771481611021389e-01  2.8991869163966748e-04 5.4514889082845025e-04 1.5209491397490163e-01  5.2901709000689647e-04 -4.6268342650414660e-03 1.6520277717980192e-01  6.5178524345149667e-03 -9.8866798902499369e-03 1.3393076197303294e-01  2.8943032939626754e-03 -1.3544200315190645e-02 1.4406104291834604e-01  1.4337050424808823e-03 -4.6128557588902006e-03 1.3853632593540621e-01  1.1065028568908723e-02 -1.1265035117003453e-02 1.4066653912927335e-01  1.3607653403646248e-03 -2.4726584385784882e-03 1.6544978289243004e-01  4.8782651867819776e-03 -3.8249628236866474e-03 1.5597390744974007e-01  -3.4940490437159509e-03 -6.9978610003624550e-03 1.4787575315907345e-01  -2.0512311351557318e-03 -2.3860725987069806e-03 1.6251002535639247e-01  1.3204127814220207e-04 4.3280305729440836e-04 1.6000682849463807e-01  -2.6795561420867015e-04 1.1808955445575575e-04 8.0206981346439471e-02  5.7627909093179580e-04 5.2565798497598772e-04 1.4062658103306364e-01  4.9110882746106112e-03 -5.1858654533737635e-03 1.4447751015475060e-01  2.6999421435320056e-03 1.5907298377007770e-04 1.6753145976797604e-01  2.5924798787709452e-04 -5.7356534268974816e-05 1.7633872232502723e-01  4.0650372423884753e-03 2.1360168906752438e-03 1.6512747374153350e-01  1.5674299507658471e-04 1.4703175335820170e-03 1.7306178861520510e-01  -3.4000226518761156e-04 -4.5006917605675060e-04 1.9171718061229717e-01  5.5268078425990740e-04 4.1183832125486313e-04 1.6487800934957768e-02  -5.9488892739876403e-04 -4.4125288002435541e-04 6.5030418164169476e-02  8.9950454708911780e-04 1.4201047717105064e-04 9.4771091432100871e-02  5.4847664901206024e-04 3.7167630830935318e-04 7.5271547460841734e-02  4.8198938063738548e-04 5.2586655694799060e-04 1.7601129341840924e-01  8.1486023424657433e-04 1.1704134782864427e-03 1.5338510985130496e-01  3.7061803585683678e-04 2.8235470319560847e-04 1.6048781603735747e-02  4.6209207949805006e-04 3.6616625978954661e-04 1.6521393113759678e-02  7.5634630254115567e-05 4.2428310170018291e-04 1.9224497359978854e-01  -1.6244058637072732e-03 -1.9421346478918457e-03 2.2911232683535187e-02  -2.7836950816264761e-03 -1.9843701481205150e-03 2.5371176441837753e-02  -1.4391736265581853e-03 -3.2561920057644143e-03 2.4913465054934206e-02  -3.1015301894527750e-03 -2.7187009822308510e-03 7.3736219709692602e-02  2.5405795837503929e-04 3.4661830115159599e-04 1.5636159041621786e-02  1.9332614311964562e-04 3.0480189528632402e-04 1.5972680296823711e-02  1.3085574978674678e-04 1.8507671512804714e-04 1.5277487179626761e-02  1.3224490487992960e-03 2.1125387640537474e-04 9.0353525388386896e-02  -4.1003080403569363e-04 7.2702789663820291e-05 1.5884462824813905e-01  1.2663675546941889e-04 3.6714732009313631e-04 1.7686676059482501e-01  6.2527214265395252e-04 1.8734298174930117e-04 1.7836594994064314e-01  6.7035841298559258e-05 1.2825684360021791e-04 1.6246755422926140e-01  -6.9402627967676500e-05 8.2582316042700761e-05 1.3307559732234125e-01  -1.6992098432036667e-05 4.8178276702452426e-05 1.7822586835187043e-01  -1.8969078639672049e-05 7.0538849664283953e-05 1.6978148641116114e-01  -4.2756878979394495e-04 5.6659211056067236e-04 1.2755140064013457e-01  -4.7449001527799322e-04 -3.1562277210768914e-04 8.8428590555542586e-02  -5.3542224598079812e-03 -1.3231510410251489e-02 1.2614529598121152e-01  8.2138561482845074e-04 -6.1638286845747143e-03 9.5839575772922542e-02  -1.0003009879990336e-02 -8.1477608583620451e-03 1.4582618359479699e-01  -5.6250331992883590e-03 -1.1506235736481695e-03 1.5754617327371906e-01  -2.2275927779746003e-04 -3.4324098721482846e-03 9.4203057778820584e-02  -3.6477643697683604e-03 -4.6876860026626747e-03 8.8020813537352999e-02  -4.3999809842640110e-03 -3.9322359271894147e-03 1.2223561408980362e-01  -4.9243537134868740e-03 -7.3643232606528516e-03 8.8495725077644194e-02  -3.9468787695980683e-05 -3.0003015765696049e-03 1.3484185416490369e-01  -2.0159818452281202e-03 -1.7984677107189273e-03 1.0304047285148225e-01  -5.0863860097370697e-03 -1.2019043416273835e-02 1.3812084195902219e-01  -5.9087420198524719e-03 -4.2511057317138490e-03 1.2550100812695161e-01  -1.7281657598200044e-04 4.7567127213479887e-06 1.7397445794143249e-01  -1.4391948134801920e-04 -1.7075282031806094e-05 1.5538064033351220e-01  -1.6947807778702154e-04 -6.8812748507166466e-04 1.4995732199573217e-01  -5.2764299394457988e-05 -1.3441897670094484e-04 1.2343100760512409e-01  -2.3262823899645318e-03 -3.5465452432561222e-03 2.6747899447466333e-02  -4.7181151468755860e-05 -2.3244374908550089e-04 1.9374967614975208e-01  -4.0590664218095303e-05 -1.1034959454517620e-05 1.5457403719721596e-01  -1.0897027402251079e-04 8.0490543079693558e-05 1.9024073041213099e-01  -9.8008006797043858e-05 -3.2199401150537731e-04 1.7785696587772926e-01  -8.5183834965492703e-05 1.3519799112470938e-05 1.4852693475711060e-01  2.8293797949367028e-05 2.2149145180244811e-03 2.1379973984294847e-02  3.8877675520828481e-03 7.5348821463774585e-03 9.1132729899872950e-02  -2.7917341716423671e-03 8.0146358393458107e-03 9.5153007465888742e-02  -3.7506892502380193e-03 3.7626009333636885e-03 9.0800846859077883e-02  -3.3955902153948690e-03 3.7881297793712142e-03 1.4309386758772502e-01  4.2369265625386643e-03 4.4104596877638973e-03 1.3672008255324972e-01  1.6006492639662761e-03 2.9501188315269496e-03 8.8144425314082578e-02  6.8172436948124564e-03 -4.3412195981131982e-03 1.2503356175599870e-01  6.3612752081909111e-03 -1.0003484049968356e-03 1.5213733567794466e-01  4.5069405478506304e-03 3.9234637544103347e-04 1.0796515747869952e-01  4.4536875086059356e-03 -2.8840347721215756e-03 1.3552367220233344e-01  6.6855954013391988e-03 -1.0531429721003793e-04 9.4507744407022240e-02  1.3028629069153426e-02 -1.4458837883198174e-03 1.4170166990159042e-01  8.5228159123725000e-03 -5.3679645695978318e-03 9.0040747648365824e-02  3.5609689138812683e-03 -3.3662152092810101e-03 7.9505701013197969e-02  2.2573917571445641e-03 -2.6074383419423850e-04 1.2339696753658586e-01  2.7138055244769880e-03 -2.3305595613207337e-03 1.5410501870820673e-01  3.8173766096647762e-04 -6.3278438266644243e-04 1.6718398357396021e-02  3.2882747407164827e-04 -4.8808976113207461e-04 1.5973419819064999e-02  7.8844946078549286e-04 -4.9507124114294440e-04 7.5149526927088123e-02  4.0685007260150137e-05 -1.1638677777565051e-03 7.7692816330011572e-02  -9.0219407440637889e-04 5.8125774064388634e-04 1.5144347303660741e-01  1.0555130010008471e-03 3.5406650968101809e-04 1.6095011801025438e-01  -4.4726195069898412e-04 9.1403013499140610e-04 1.9168400293025525e-01  1.7551174203162903e-03 1.8179392188883328e-03 1.7456243886065495e-01  1.3493451257938964e-03 1.5288129745172415e-03 1.5771336146675805e-01  4.0495515514186537e-04 -5.8119708191378054e-04 1.6126352543602302e-02  2.3864622237889586e-04 -5.0010728734506090e-04 1.5641378673302207e-02  7.6806510061310732e-04 2.1070626355724851e-03 1.4045169330842086e-01  -8.2406478653766887e-04 2.0352500515263021e-03 1.7001846324220762e-01  5.8133361034779472e-04 -1.0356926291588116e-03 1.9814849396709695e-02  1.4026410061376711e-03 -1.1514873028231093e-03 2.1075153481321485e-02  9.1503683113930922e-04 -7.7387217722480665e-04 1.8552398464053921e-02  1.1954691830476712e-03 -1.6135567669694514e-03 8.1191583205255713e-02  4.1258667905793465e-03 2.6310096461664768e-03 1.5083084458169932e-01  2.2835649286617938e-03 2.5518178758119252e-03 1.3385825759284292e-01  -2.0158548527585857e-05 9.7017487504632400e-04 1.4400723529596887e-01  1.5574993946986786e-03 1.0975972751618912e-03 9.8212898640392648e-02  1.1518754387399340e-03 1.4807622367347720e-03 1.2851500700257476e-01  3.9176307415301624e-04 1.8780523911949487e-03 1.2153732558140121e-01  -6.5610194220982543e-04 -2.7421167920332028e-04 1.4054777238107524e-01  5.4194411320867067e-04 5.2368698748322666e-07 6.1981531718173166e-02  -5.5968395717640102e-04 1.8082676282500637e-04 7.3291008549664888e-02  -2.6581223825882824e-05 -9.3418903871099999e-04 1.3165668113336282e-01  -2.5159197262094354e-04 -1.9811756600847594e-04 1.2755951279951339e-01  -4.9572053269337796e-04 -4.1191932095433620e-04 1.0698204045783159e-01  1.9283957145735010e-04 3.4646092506416946e-04 6.0902155043296761e-02  -4.0599499795573114e-04 -5.4062972334612566e-04 8.5906205058173452e-02  -1.3635708068156970e-04 2.0318249887776971e-04 1.4970215170713608e-01  4.1102569516269128e-04 -2.5750092667956302e-04 1.5288294096896979e-01  6.9461417585072997e-05 -5.9274487537099810e-04 1.0736792954405487e-01  7.6478728554742572e-04 -6.5307597701805167e-04 1.6535203912794769e-01  4.5223597326430384e-04 3.6285485437198877e-05 1.3743562872849960e-01  4.8773761249885672e-04 -9.3102126740534339e-04 1.3302644152091850e-01  -7.7755066863598621e-04 -1.0613418602467037e-03 1.7523961675882851e-01  -1.8604364400413639e-04 -6.7419030916620812e-04 1.7427589264042204e-01  -7.9152555634828987e-04 5.0225777350637580e-04 1.8337250680153221e-02  -5.1773888234870160e-04 3.8950845583697396e-04 1.6660460435441202e-02  -7.7947083842203101e-04 4.6577552070646062e-04 1.7290711691679297e-02  -9.7519297854280283e-04 7.4715697806856300e-04 8.1354980101957755e-02  2.7691475865259303e-03 -2.5842951282291000e-03 2.8731141707007121e-02  1.2902114258574340e-03 -1.8869041707704002e-03 2.3461497909829446e-02  2.8020568467776656e-03 -1.9904429470103753e-03 2.5131741310195511e-02  1.5698021192294687e-03 -3.4644309103469672e-03 2.6252255589979671e-02  5.7859581817078297e-04 -1.0076453745491371e-03 1.6696542201519390e-01  -7.1993109754307340e-03 -1.4241851237077185e-03 1.4046008739295870e-01  -7.3936232247944654e-03 -1.5028817698426004e-03 9.4258245254686235e-02  -1.3204123331835812e-02 -9.5237056430358090e-03 1.0770658292993747e-01  -8.7782633640327307e-03 -2.9123535629700778e-04 1.3706371687514410e-01  1.2499794058807459e-03 -2.1939614993695660e-03 1.3294054381096224e-01  3.3623559222389588e-03 -3.7644291435344557e-03 1.2454110510783455e-01  5.3529313956929622e-05 -2.9064181237114893e-04 1.4781664326404690e-02  4.6405191974478063e-05 -2.6548768447263261e-04 1.4428385038321745e-02  3.3764579487730967e-04 -2.6523216896301004e-04 7.7677892102913856e-02  2.4800310805659097e-04 -2.6426688679765959e-04 9.4566186657436782e-02  5.3860562663346446e-04 -1.3728890281118698e-03 8.5023275126137818e-02  1.2695713195516878e-03 -1.2933044288999690e-03 1.5529059315628096e-01  -3.2600893252604001e-03 -5.0497890969521111e-03 2.4255407451411640e-02  -1.2207276997245921e-03 -1.8031692844417994e-03 2.1724215423635861e-02  -5.3000008713513687e-04 -2.4219769743045456e-03 2.2944079822996510e-02  1.1814613425637932e-04 2.3677277809201554e-04 1.5066183503224803e-01  -3.1546228792949463e-05 9.8070863015443290e-05 1.4278048276649180e-01  8.6635173876315554e-05 -8.5393975961559982e-05 1.4165342737667727e-01  2.0627247811456293e-04 -1.0130096324575112e-04 1.0342822387606833e-01  8.4379415093146744e-05 -8.9805935179737331e-05 9.0175350501887283e-02  2.0095997359048862e-04 1.2008628916507725e-04 1.4198777182531316e-01  3.7495525244589534e-05 1.2071346349748544e-04 1.7825032546388991e-01  8.5643087983331632e-05 -7.1454874699316068e-05 1.4771152056321246e-01  2.5348667284178754e-05 4.6717130625854988e-05 1.1292293071598793e-01  4.1527656150879362e-05 -1.1384099043594781e-05 1.7230369242807636e-01  -2.8198056051110310e-05 -1.6248453741380978e-04 1.1384912266909306e-01  -4.6863284694564629e-04 5.2172834714420894e-04 1.6568071468372213e-02  -3.2265378596724284e-04 3.7857325811467855e-04 1.6068612036436676e-02  -5.7725439313712141e-04 -2.1740562672857293e-04 9.1180207993111828e-02  -1.5514928485311561e-04 -6.1460751967512756e-04 6.2236285066022877e-02  7.1753604054188439e-05 -2.7829063017988157e-05 1.6363861361551493e-01  -4.2777604893082133e-06 1.0150871854741945e-04 1.0732429390185640e-01  -1.1478752039192707e-05 1.0225743387466815e-04 1.7742297353538156e-01  -3.6127641583774510e-04 3.5998723303748653e-04 1.6053488967703970e-02  -3.0279774976424981e-04 3.4636357686226860e-04 1.5505211421091299e-02  5.7152353220436217e-04 2.3064261543491560e-04 1.2481440825044089e-01  -4.2663693655275656e-05 -3.0821755250954003e-04 9.2296891523804880e-02  4.9813480651699749e-05 -2.4410303584137377e-05 1.1504859323314275e-01  -2.0985944894314791e-04 -3.2043340543851031e-04 1.0445055476249437e-01  -1.3164326440274652e-04 -4.7153068443976849e-04 1.7518691704110054e-01  -2.5099522192244606e-05 -5.2828731249138488e-05 1.3917979346926176e-02  -1.7663411817272049e-05 -5.5333879967973841e-05 1.3893167249637619e-02  -5.6868762504438542e-05 -1.3589462636664891e-04 1.4123905161641493e-02  -1.8097103663366183e-04 7.0036044552604422e-05 9.1536277310190456e-02  6.8868317659153756e-06 -6.4096361133782835e-05 1.7806161087697545e-01  -4.7166676629045723e-05 -5.4317423311301128e-05 1.7916217141060028e-01  1.0057073096417656e-04 6.1116462894595302e-04 1.4335997563786332e-01  2.4444950307387974e-04 1.0086051936714900e-04 1.6224703706327157e-01  2.5784081425127509e-04 1.7377209283890344e-04 1.6658913380387813e-01  3.1016437677694068e-04 -2.5663312523782255e-05 1.5468081453943064e-01  -4.5385587165305857e-04 -5.5233342871367774e-04 1.6679778834502335e-02  -2.8255877838512938e-04 -3.8714724810210447e-04 1.5923539369023899e-02  9.6800612816274832e-06 -1.0471744838915570e-04 6.5301541888669129e-02  -6.8528965578138553e-04 1.2771499422324090e-06 8.4640238577789836e-02  -1.9913148557597257e-04 3.4189607009764910e-04 1.3929914882470110e-01  -2.8555206244575680e-04 4.5975012713504265e-04 1.4921059380946003e-01  -2.1597324639795624e-03 -7.0621623839946203e-04 1.6981671377963725e-01  -2.7847563011711178e-03 1.2301344286253652e-03 1.5444451028587380e-01  -4.6089226405087655e-03 5.6093072111104295e-03 1.2929225317194720e-01  -5.5283104950040124e-03 2.3112331264848714e-03 1.3026995256181451e-01  -1.0696866851493672e-02 9.7929795451404105e-03 1.2308949076972385e-01  -1.3486423394890641e-05 4.2820647937979810e-06 1.8788880328233043e-01  -4.5742955443963967e-05 1.2931245283555088e-05 1.7530020746997782e-01  -1.6960572442362547e-04 1.1747722207303965e-04 1.5876611851335840e-01  1.1522444549653966e-04 6.1967106757414240e-05 1.9376257230713412e-01  -1.5216881100126917e-05 2.1437848484363243e-04 1.6591709452570724e-01  -1.7273492074123165e-04 9.7598431873975787e-05 1.6918624633190416e-01  -1.0355683412844989e-04 8.1048670284313609e-05 1.8468392111745080e-01  6.9157663785562637e-05 -1.0858759675309355e-05 1.5507640347146212e-01  1.0108483711707730e-04 -5.3891072974867105e-05 1.5771461081859969e-01  -2.1297571220310965e-04 -4.6639895543488404e-05 8.2199081594488563e-02  -1.1292725248236986e-04 1.1193165790557007e-04 1.1596923270006233e-01  -6.9698782586658260e-05 9.1900148566289693e-05 1.2116979543838617e-01  -4.4915208649452153e-05 -6.4648240121093224e-05 6.8539722875672129e-02  1.4473087776888458e-05 1.4426860701140845e-04 8.8860672245169692e-02  -5.6950612306640668e-05 2.9225440221974605e-04 1.1496332213242939e-01  8.2775572398815337e-05 -2.1085904734701095e-04 8.9821592364439054e-02  8.2076110970751256e-05 2.7588840504619977e-04 8.3535365124886879e-02  5.6835489335760308e-03 -7.6303201067341011e-03 7.9529936273792803e-02  6.2389982714071406e-03 -6.3914493742482977e-03 8.9138797456857363e-02  2.9167347844735771e-03 -2.4051625220370696e-03 7.1984273008703900e-02  1.2977901055898265e-02 -1.1378626148579509e-02 1.2384844295672873e-01  -1.5998316046727096e-02 -7.9320301883388684e-03 1.2380004173250381e-01  -1.1873572837781250e-02 -1.6335390057117271e-02 1.2185626933695119e-01  -1.5026310809013487e-03 6.2489527273665735e-04 2.1226324890831920e-02  -2.4550627623203527e-03 1.0591021522694355e-03 2.2200820903738618e-02  -1.1788383760063593e-03 6.2282416662973606e-04 1.9432282363801789e-02  -1.6313696083373724e-03 1.2475984625286464e-03 7.3789778545168827e-02  3.9839447521911034e-03 -1.5070270642674974e-02 1.2623168698781848e-01  1.2309974589162095e-04 -2.0428496739839541e-02 1.0589132353232346e-01  2.8278763403726493e-03 -1.1929058989936342e-02 9.3776480956388394e-02  -5.9232008184569090e-03 -6.5888695550716343e-03 8.5053052955419609e-02  8.3358482155499927e-03 5.1490176624335244e-03 1.4178141004912104e-01  9.9943555968337212e-03 1.1571297213474019e-02 1.2280635551968468e-01  1.4170154954293274e-02 8.9624340230398201e-03 1.0405360948326101e-01  6.1245977723635948e-03 4.7610799422544850e-03 1.0678440788408088e-01  -1.5548192024506062e-05 -6.1987164282930536e-05 1.3847380771093321e-02  8.2558070729060441e-06 -5.0078160026102664e-05 1.3841533878979764e-02  -6.2477910366778454e-05 1.4671389587611062e-05 1.1296874976843903e-01  -1.1781784489605035e-03 1.4594840159382031e-03 2.3013895918911707e-02  -2.8951203993599242e-03 2.2232464065366853e-03 2.3960543885590695e-02  -3.2717110134735787e-03 2.7845078155875765e-03 8.0286497941706461e-02  7.1344841979439634e-05 -2.3833892921764708e-04 1.8498858797561576e-01  -4.638