<?xml version="1.0"?>
<VTKFile type="UnstructuredGrid"  version="0.1"  >
<UnstructuredGrid>
<Piece  NumberOfPoints="857" NumberOfCells="3763">
<Points>
<DataArray  type="Float64"  NumberOfComponents="3"  format="ascii">-0.0182597916573 0.126128911972 -0.119588643312  -0.0077641364187 0.0512270443141 -0.07050477713349999  -0.0237180162221 0.16240182519 -0.053058128804  -0.107877351344 0.105669431388 -0.0502408407629  -0.0444478429854 0.116080775857 -0.00235075876117  0.0393674038351 0.112876079977 -0.0491501875222  0.0248903874308 0.0489483103156 0.000152088920004  0.0314915925264 0.114928804338 0.0218031276017  -0.0657326281071 0.0685198307037 0.0497140102088  -0.0355357266963 0.164656624198 0.0508319064975  -0.010538729839 -0.0422629192472 -0.208358153701  -0.0239527057856 0.0135364839807 -0.242119863629  -0.0194642152637 -0.0775559768081 -0.263431429863  -0.08492307364939999 -0.0108216870576 -0.280446648598  -0.08293507993220001 -0.0361198186874 -0.159778758883  -0.0240796487778 -0.0824203491211 -0.148982465267  0.0430508553982 -0.121076337993 -0.234084427357  0.0307756774127 0.0324950888753 -0.198437720537  0.00352357281372 -0.00433266581967 -0.144715368748  -0.0456651262939 0.08372022956609999 0.342343091965  -0.116630032659 0.0117083769292 0.386158525944  -0.08223126828669999 0.0577075146139 0.289406776428  -0.0511222109199 0.00205342215486 0.300772219896  -0.0125984866172 0.0267426930368 0.351842552423  0.0303636882454 0.0561947338283 0.391145974398  -0.0524924062192 0.0543583929539 0.40361738205  -0.07944945245979999 0.130002260208 0.441037595272  -0.000730989675503 0.119443200529 0.385622620583  -0.078488714993 0.137875169516 0.332541137934  0.0142801422626 0.110509291291 0.27100610733  0.0224165506661 0.08303219079970001 0.331783413887  -0.0170432701707 0.161798536777 0.30022162199  0.000811119796708 -0.0515509881079 -0.08419398218390001  0.0888616070151 -0.015075173229 -0.0776951387525  -0.0989535748959 -0.0518730916083 -0.08125374466180001  -0.0433920919895 -0.09785594791170001 0.0106235472485  -0.0488061010838 0.0295096840709 -0.0131453983486  -0.25 0.25 0.5  -0.166666666667 0.25 0.5  -0.25 0.195066730511 0.445658150344  -0.19506166517 0.25 0.445542865294  -0.0213422998786 -0.126349791884 -0.045622177422  -0.117952652276 0.0158270020038 -0.16616243124  -0.0531469397247 0.0490713231266 -0.13630309701  0.0358348339796 -0.131537660956 -0.134171053767  0.0583617314696 -0.115307979286 -0.0462360456586  0.010585160926 -0.0606908276677 0.314250290394  0.078067921102 -0.133790805936 0.331458956003  0.0206208750606 -0.104583717883 0.36723652482  0.0300164371729 -0.13569638133 0.270959883928  0.0797956883907 -0.07311873137949999 0.388136893511  0.0291880238801 -0.0850581228733 0.220644980669  0.0788302049041 -0.07555303722620001 0.284453928471  -0.0465739220381 -0.108428947628 0.305151432753  -0.056692365557 -0.0812899768353 0.234353885055  0.10282895714 0.0630551427603 -0.0452189296484  0.178613707423 0.153893724084 -0.0703043565154  0.0750898644328 0.130835875869 -0.116260357201  0.0179002508521 -0.0400723591447 0.396018892527  0.07961820065980001 -0.020668130368 0.232235535979  -0.00726175494492 -0.022667773068 0.242156982422  0.0524490773678 0.0171752162278 0.310696065426  0.0103002395481 0.0813155695796 0.107229083776  0.00225681974553 -0.008687185123560001 0.0457225777209  0.177950121638 0.25 0.0405701099774  0.151375159621 0.202163234353 -0.00268407491967  0.13042794168 0.172564610839 0.0599601529539  0.184557154775 0.16295710206 -0.00737970136106  0.0827306732535 0.011830884032 0.0299163535237  0.106673434377 0.0676268041134 0.0663062110543  0.25 0.25 0  0.25 0.177947182503 0.0435581305687  0.0251978598535 -0.0201241951436 -0.0233656335622  -0.25 -0.25 0.25  -0.175495340629 -0.25 0.295351832328  -0.25 -0.175776260788 0.294629825204  -0.164853364229 -0.189889326692 0.246240898967  0.111295968676 0.25 -0.00354384794953  0.0417815256417 0.25 0.0264120515999  0.0577150444892 0.25 -0.0418173710713  0.035034801811 0.196921139956 -0.0497792549431  -0.115254960954 0.0352221727371 -0.0357825122774  0.0360979661345 0.0743419006467 -0.130612716079  0.08110298216340001 0.0143552683294 -0.135737240314  0.0281950440258 0.110801942647 -0.38559025526  -0.000352636008756 0.154027625918 -0.45018479228  0.0220217909664 0.07910815626379999 -0.445265561342  -0.041934799403 0.09297795593740001 -0.440330862999  -0.115356497467 0.128115877509 0.0303980205208  -0.08144567906859999 0.192924261093 -0.0396481454372  -0.0503155887127 -0.140062868595 0.370642662048  0.0181560348719 -0.191118896008 0.319997102022  -0.09442232549189999 -0.0766885429621 0.347179293633  -0.10306725651 -0.0245223585516 0.261891931295  -0.0371639840305 -0.192689821124 0.258922994137  -0.08778057992460001 -0.193450272083 0.293951839209  -0.116932563484 -0.137108251452 0.278956532478  -0.0434515699744 -0.19969072938 0.340430229902  -0.016621209681 -0.143479332328 0.208528921008  -0.0799133181572 -0.177766740322 0.206858798862  -0.0340202823281 -0.07231882214550001 0.405357718468  -0.153045728803 -0.0703692808747 0.28540495038  -0.0647673308849 -0.069349065423 -0.297796696424  -0.0468406006694 -0.118580199778 -0.331259429455  -0.0636249184608 -0.122360698879 -0.235275790095  -0.137311711907 -0.115820750594 -0.279358655214  -0.25 -0.25 0.333333333333  -0.00222280388698 -0.0275516584516 -0.327156513929  0.0233143884689 -0.124395690858 -0.330935031176  -0.00544846989214 -0.0444226972759 -0.392852008343  -0.07202984392639999 -0.0450558848679 -0.379192590714  -0.128861442208 -0.0482712239027 -0.325591087341  -0.0319190612757 0.25 0.27473160228  0.0259018652141 0.196524605155 0.343851953745  -0.0424101948738 0.196461260319 0.324036180973  -0.08801463991400001 0.193724930286 0.280150324106  -0.051391992718 0.129726842046 0.244459152222  0.0793330296874 0.131078347564 0.273738384247  0.0304427426308 0.197590425611 0.258007407188  0.139736711979 -0.103549621999 0.308288753033  0.117407329381 -0.00031748006586 0.284001767635  0.17845864594 0.0137020656839 0.2717012465  0.133446916938 -0.07468281686309999 0.252671837807  0.193237304688 0.0103836003691 0.32706490159  0.108656100929 -0.016409387812 0.370573759079  0.195593327284 -0.0705924406648 0.374003827572  0.204297035933 -0.0882691517472 0.283604085445  0.15987212956 -0.0232784096152 0.211559042335  0.103109702468 -0.0715631917119 0.185957938433  0.25 -0.177950121638 0.0405701099774  0.25 -0.111295968676 -0.00354384794953  0.168315500021 -0.181550845504 -0.0129796266556  0.203061833978 -0.0839376300573 0.0201103240252  -0.123973377049 0.0421161539853 0.0831994190812  0.10652089864 0.041568480432 0.133020982146  -0.00508088478819 0.00464248098433 0.118765294552  0.0384838804603 0.0542355030775 0.219570666552  0.0556482039392 0.09942726045850001 0.165778696537  0.25 -0.25 0  0.25 -0.17904445884 -0.0421267671166  0.0085972994566 0.139411628246 0.206887423992  -0.0427397117019 0.0734880268574 0.199836358428  0.25 -0.25 0.166666666667  0.177338154858 -0.25 0.209433902167  0.178222204231 -0.25 0.126578397361  0.180748909712 -0.154124230146 0.180074676871  0.118582360446 0.0498475395143 0.233844980597  0.113276541233 0.115120351315 0.208414897323  0.068451166153 0.123325429857 0.09300038218499999  0.08695217221980001 0.18308262527 0.11987875402  0.1366494596 0.0978636816144 0.125807240605  0.0170362386853 0.165571182966 0.116205818951  -0.075325883925 -0.13042730093 -0.120773427188  -0.191016584635 -0.1764793396 -0.0778442546725  -0.102759346366 -0.20253264904 -0.07015967369080001  -0.126150563359 -0.115044787526 -0.0573479756713  -0.138729035854 -0.104583211243 -0.134180948138  -0.147993162274 -0.138949289918 -0.203295826912  -0.180331096053 -0.192031860352 -0.160557568073  -0.194399222732 -0.0846866071224 -0.148938387632  -0.11259970814 -0.078034222126 -0.193649172783  0.0326924659312 -0.122268341482 0.0296003930271  0.0215157996863 -0.180560961366 -0.0757267251611  0.0956164896488 -0.0493310950696 -0.0164182558656  0.112129375339 -0.112067811191 -0.105549775064  0.127802968025 -0.106147237122 -0.0110959038138  -0.0854129120708 -0.015297700651 0.056893799454  -0.0204317308962 -0.0795602425933 0.117458000779  -0.178222204231 0.25 0.126578397361  -0.177947182503 0.25 0.0435581305687  -0.107976816083 0.25 0.0905854563709  -0.157577678561 0.178241759539 0.0969507619739  0.25 -0.25 0.333333333333  0.25 -0.25 0.25  0.175776260788 -0.25 0.294629825204  0.25 -0.175495340629 0.295351832328  0.0932372882962 -0.0430554822087 0.0724518448114  -0.044769000262 -0.00661279587075 0.403999477625  -0.194478780031 -0.0247275307775 0.332954645157  -0.173761367798 -0.0806607827544 0.396263659  -0.137637495995 0.00523930834606 0.315887242556  0.0864742994308 -0.139340251684 0.176064118743  0.105438224971 -0.136641919613 0.253711819649  0.0308670303835 -0.25 -0.136809572586  0.0367561832589 -0.25 -0.219583441074  0.0925811678171 -0.20055809617 -0.19996842742  0.0127155454829 -0.193433105946 -0.225977659225  0.0415658205748 -0.200880005956 0.196522325277  0.0373581312597 -0.119548290968 0.120048768818  -0.0954102815882 -0.25 0.346414074494  -0.101368582479 -0.25 0.251933327382  -0.0374909392175 -0.25 0.286229296012  0.0852289572358 0.109103307128 -0.27055695653  0.07707493752239999 0.127253636718 -0.199824258685  0.128097131848 0.07648140937090001 -0.209757223725  0.154867321253 0.13628205657 -0.212952241302  0.08678253740069999 0.189277544618 -0.274375885725  0.127699971199 0.0803090333939 -0.326344817877  0.0577741526067 0.0601542405784 -0.31936660409  0.0525139421225 0.129102528095 -0.326874881983  0.0251371748745 0.175572559237 -0.261228203773  0.0199144631624 0.0927290171385 -0.265960127115  -0.148952946067 -0.121583275497 -0.374568909407  -0.25 0.177950121638 0.0405701099774  -0.25 0.111295968676 -0.00354384794953  -0.175531774759 0.135734900832 0.0562076568604  -0.178730383515 0.191659659147 -0.00562386959791  -0.0244714934379 -0.108516678214 -0.387223660946  -0.09279609471560001 -0.170035287738 -0.445968538523  -0.0281062982976 -0.0
[...]
<PointData  Vectors="f_78"> 
<DataArray  type="Float64"  Name="f_78"  NumberOfComponents="3" format="ascii">-8.4798576480578901e-06 -2.4863106157073768e-05 -3.5103571413892085e-03  9.0437389139667140e-06 1.9431365904282009e-05 -3.0476085518870190e-03  5.1589692731673751e-05 1.6271897975582260e-04 -3.2500076909210271e-03  7.1033144682332354e-05 -8.4007823647033847e-05 -3.6276475837239731e-03  1.2023900661032432e-05 -5.1686898324526643e-05 -3.9738834477285158e-03  -1.0026303273180641e-04 -6.6764401150885553e-05 -4.9631839913648031e-03  3.2525161596723020e-05 -5.0749687905297807e-05 -3.8063557604109282e-03  7.2101091974871519e-05 3.1910207780036616e-05 -3.6450453973336074e-03  -3.9364700098254236e-05 -4.8577316913017333e-05 -3.1206293302184058e-03  -5.3961571956106561e-05 7.5931984621781937e-05 -4.0125575422954056e-03  2.3637265936992507e-05 8.8571742910532994e-05 -2.7942307537946296e-03  -2.5649305210572058e-05 -1.3834043961373822e-06 -3.4896073050658966e-03  -4.9004068898093611e-05 2.2353162918102922e-05 -3.7489240693354370e-03  -5.4428883926075822e-05 3.1080100600763601e-05 -4.3189129515952464e-03  -2.2105490370681909e-05 7.0434524090948167e-05 -2.3966510152120275e-03  -7.1092957880312480e-05 1.0295238206073162e-04 -2.4197141125060152e-03  5.7131614988473672e-06 1.2241895745107687e-04 -3.4094851586936870e-03  2.5154517050817214e-05 2.7478295911608703e-05 -2.7564450636581332e-03  -7.1522676598557623e-06 -3.6429728080454900e-05 -3.0408939641198714e-03  8.1239340810134426e-05 -1.0999880339542304e-04 -4.1837766424194936e-03  1.4546691706638439e-04 -2.0626506882500530e-05 -3.7035843980696283e-03  5.3332871857050268e-06 -2.3354820917281115e-06 -4.1113333602239930e-03  -1.1195922545789412e-04 -7.0363870129532883e-05 -3.8118699088424504e-03  2.9673455277527620e-06 1.8115726480630423e-04 -4.8816600094943761e-03  -1.8485262019801079e-05 6.6428749353809860e-05 -3.5492566546415530e-03  -5.9741500022981783e-05 2.3296727935267749e-04 -3.8310204197455288e-03  1.6341519949777513e-04 2.8334701919367861e-05 -4.1304456009184547e-03  8.1845536114768447e-06 8.0971238600446632e-05 -3.8692962066751366e-03  1.8114401837603865e-05 1.6266656178170910e-04 -3.4572530805644080e-03  -7.3731763211295259e-05 1.3657240235998849e-04 -4.3558637054386439e-03  1.4231979307728171e-06 1.6242165723807364e-04 -3.7228042168599568e-03  -5.2710350150076558e-05 -9.2566935421215863e-05 -4.2055590632107016e-03  3.3051463969032315e-05 2.9667265481075904e-05 -3.6107370195404389e-03  -1.3917551458286520e-05 -7.4527194900530327e-06 -3.3056315129583427e-03  -1.5914876983577528e-05 4.0703948311816111e-05 -3.8344680646540509e-03  5.4967830236304445e-06 6.1344840378010901e-05 -4.3272439109912656e-03  1.5825845725312464e-06 1.4777113139385995e-05 -3.9458146383365873e-03  3.2747393787930448e-06 5.6662840448028521e-06 7.3379439319593782e-06  2.6599649455655857e-06 -4.5900307400839979e-06 1.0445100926076938e-05  -6.6295813858761723e-06 4.7968364248632142e-06 1.2102071844709986e-05  -9.1599446993246749e-07 -4.6591147141502067e-06 7.8389027533347175e-06  -3.3777305312772760e-06 4.1888504884491355e-05 -4.2573288885164829e-03  -7.8360134209833475e-05 -4.2705246491352305e-05 -4.5055324592479518e-03  5.1379035667260929e-07 6.4018501503354601e-05 -4.1623717131378290e-03  8.3890252303840768e-05 -6.2182020740206057e-05 -3.5283179936111729e-03  -6.4059124489164871e-05 2.1655716173945680e-05 -4.5739911454978086e-03  5.2137960829367992e-05 1.0260402481509438e-04 -3.8011337163745091e-03  -4.8816585193490752e-06 4.4505841064048263e-05 -4.4382556436687922e-03  -1.7651812905899008e-04 -3.3754496591581525e-05 -4.5005213214304287e-03  -4.6647832102076074e-05 3.2771903011664916e-05 -3.1549980914702064e-03  5.6585004587427770e-05 -9.6020056121833721e-05 -4.4919279643151405e-03  -2.0943200331861179e-05 -5.8360995980893147e-05 -3.4696648768686327e-03  1.5009504759718880e-04 -5.1442377564658439e-05 -4.0489715030501867e-03  -8.8184967184064386e-05 -2.3993875145909637e-04 -3.2921011992477112e-03  4.7300451484691753e-05 9.2430824802978542e-05 -3.1421018906476433e-03  -3.0193443919291474e-05 -6.5587674799697789e-05 -3.9258447566152778e-03  -4.8449979514207750e-05 1.8534286063232622e-04 -2.8982424778273394e-03  9.6486178384517523e-05 -3.2291433600206690e-05 -4.2867139163836410e-03  1.2748077275756748e-05 3.3176490800402932e-05 -4.5111915511826389e-03  -3.7284767082674619e-05 -4.0346682836661010e-05 -5.3124719081653329e-03  -6.9503060267296635e-05 -1.3355110451896329e-04 -2.8680667956192062e-03  5.8290695128491754e-05 1.4942079109321661e-04 -3.8126706579884335e-03  -4.4064765788827258e-05 3.1141382629987264e-05 -3.7629714580784848e-03  2.1837684412228136e-05 -1.0570186035817423e-05 -3.6198620546974447e-03  -3.4143509197676882e-06 2.5372216380511773e-06 3.6909316241073090e-06  -2.8350059094776219e-04 8.7351756122405028e-05 -5.4622715512707646e-03  3.2768706730823972e-04 -2.8976193207904430e-04 -3.4812364862575017e-03  1.9408508632127674e-04 2.0566204659400327e-04 -4.0534821163477437e-03  1.1175325125844511e-05 -2.6681392614206057e-05 -3.5643652529983114e-03  3.7816698920356545e-05 4.0041479476236152e-06 -3.5216650506954016e-03  -1.2368605804998718e-05 -1.1541220036072494e-05 -1.0617773850592984e-06  -2.4347560279565012e-07 -1.2378547996542140e-06 3.7608749949868387e-06  3.8940441766460960e-05 3.3485681215015741e-05 -3.9570655938163347e-03  1.0274798473268912e-05 1.3302927043081559e-05 -3.0733817514279694e-06  7.6214212708897912e-07 -1.8939242019733518e-06 2.6270586553800860e-06  -1.9712122602853708e-06 4.2280566335017009e-07 4.7891772614440124e-06  5.0839593842069071e-05 -4.2713009461403949e-04 -4.2266368413078001e-03  -2.5055113216924086e-06 9.2433347883331968e-07 -1.6384194550530499e-06  -1.1260908560483889e-06 -8.5103322254205038e-08 9.4088681917271151e-07  -1.9123548001922621e-06 7.8630970020096275e-06 -6.3364490093893188e-07  1.0308022140885641e-04 3.3709921008578855e-04 -4.5078703773268926e-03  -2.6390754894813180e-05 -7.4195567518400306e-05 -2.7502918910393120e-03  -1.2593198477349500e-05 -2.3565622086368785e-05 -4.2358283264370359e-03  -3.1999650523432075e-05 -1.2144211348123300e-04 -4.2447320416303148e-03  6.0284359711125369e-05 -6.4763433585384288e-05 -3.0806817481901887e-03  -7.5031916532495536e-05 -1.6884455754613000e-04 -3.1256435508227576e-03  -4.8566493113866847e-05 2.2711649560214088e-05 -3.0032879864590428e-03  2.3833710282056184e-05 -1.6465345055377158e-04 -3.2514335370290521e-03  -1.6155961730608462e-04 -1.5596363819132614e-05 -4.1997327307344082e-03  6.7387841174796400e-05 -2.3309110017849787e-04 -3.4200518398042668e-03  -1.2768649543317556e-04 -1.9504101727028629e-04 -3.4220188011852746e-03  -1.1963486340040126e-04 -1.4767015140647685e-04 -3.5239614959131026e-03  9.4077041238161866e-05 -3.7484714185929379e-05 -3.5800330148132325e-03  9.7200343626318160e-05 -1.5527356206653295e-04 -3.2356059993180653e-03  -3.5379879880528688e-05 -2.4228310558195136e-05 -3.1171629166232527e-03  1.5392061165653382e-04 -3.2769995052335326e-04 -5.2745029059933710e-03  3.3181794927416056e-04 1.9131843780874328e-04 -3.6023245847365947e-03  5.6429143508766981e-05 -4.8438279259270159e-04 -5.1897856507973263e-03  -1.0731644468885837e-04 1.4664746152815141e-05 -3.9863250984144326e-03  -7.5994812820808928e-05 3.2040289922746930e-04 -3.4541900927253142e-03  7.1048148946514100e-06 8.3357710511208023e-05 -4.4378389235861003e-03  2.1381868565699670e-05 -8.0998244566580352e-05 -3.3192495950556439e-03  -3.8615106488125638e-05 -2.5958632731098782e-05 -3.5828678650665032e-03  1.4293069270229325e-04 -5.3749567832131294e-05 -4.8471427683722370e-03  1.2430471453324694e-04 1.5605094765828379e-04 -4.3946990803175722e-03  -4.1788170403432874e-05 6.7554696835038222e-06 -3.6725591051114353e-03  -5.1012817941775589e-06 -7.3165967228165662e-06 -2.3431863759742146e-06  1.2345394484891206e-05 3.2240816052414617e-05 -3.3444045483303772e-03  7.1690918631779396e-05 -2.8075622859868681e-05 -5.0880167393232570e-03  -1.4130558496432190e-07 3.3088131103805545e-05 -4.0420994054160067e-03  4.0369076759684024e-05 1.9808692197947687e-06 -3.9246350779470768e-03  1.1630095016553801e-04 1.8866863058505243e-04 -3.5004791297831147e-03  8.5555018774020192e-07 -1.4798360172061478e-06 4.6870821545409040e-07  -2.5752983356225757e-04 5.4116689187788745e-04 -4.5569874763257212e-03  -1.4752954321799227e-04 3.8637224504522424e-04 -4.2790386787665592e-03  3.0268073100533558e-04 -4.4687558513116049e-04 -3.4202188832645778e-03  -6.9439532807563650e-05 3.4633724586824395e-04 -4.4931587421091898e-03  7.8439691361335137e-05 2.0283317865953416e-05 -3.3501924940224134e-03  -1.8621480592745650e-05 2.7334759703274405e-04 -5.3016435270044080e-03  -2.7901517007421632e-05 -1.5093394938548045e-04 -2.7379959398478558e-03  -3.5471000354448878e-05 5.4767466277450284e-05 -3.2124583461466513e-03  5.5289874310283093e-05 1.4559286367704527e-04 -1.7213240166186979e-03  -1.3229730465444823e-04 -5.7171747239648500e-05 -2.4870457005473049e-03  2.8918541772800964e-04 -2.0836104062116758e-06 -2.8210956290283312e-03  1.0187946670203852e-04 5.8640313229616643e-05 -4.0955137606529298e-03  2.3166210013748198e-04 -6.3999161266822414e-05 -2.3243216179377637e-03  4.6520391568935829e-04 6.6437677528763956e-05 -6.9136540449278375e-03  4.1557716861814798e-05 -5.7745514750071998e-05 -3.0650343826901095e-03  3.1920854091267936e-04 1.6955679286861773e-04 -2.5855719262351893e-03  5.4197696298301448e-06 8.5048954715683899e-07 1.8800989128035862e-06  -2.7250082670849322e-06 2.5285422941358924e-06 3.7933843931467142e-06  -1.3685034895440982e-05 3.9028101705365145e-05 -4.3152282790073224e-03  -5.4015893181108543e-06 -3.4432323296665845e-04 -3.1583119997413089e-03  2.5937664007392862e-05 7.9836263077629291e-07 -3.5549176728816214e-03  -5.8595802305497453e-05 -1.0144340591945432e-04 -3.8208386068947133e-03  5.0349226746984089e-06 -2.6899396272950890e-05 -3.5280832514632951e-03  5.9075813263548132e-05 2.4087204237474970e-05 -4.2043783242944385e-03  -9.2191462314624706e-05 -8.5080189161977781e-05 -3.2894431413303766e-03  8.2998338718390840e-07 -2.7311616422049978e-07 3.6149312924158473e-06  3.3350414957528625e-06 1.3174419313880174e-06 -4.4292288216507150e-07  3.1359326820175733e-04 -1.2373956766472869e-04 -4.0328455149259137e-03  7.1404269978800962e-05 4.0744293625034045e-05 -3.6329785880751986e-03  4.7670619062053370e-06 -3.5272503779667996e-06 2.4895506177198113e-06  1.9168194363670988e-06 -4.6689879179759393e-06 -1.0364058895692828e-06  -1.7974397902387950e-06 -2.2847306467465078e-06 1.5825782339869673e-06  -1.5487280956641910e-04 -1.8276529344235049e-06 -4.0964014734593190e-03  5.2041457676493233e-05 1.2911195282287540e-04 -3.5215710753770130e-03  5.6447579019678270e-05 -1.0706508608052101e-04 -2.3936600955396588e-03  -5.4027578167967640e-05 -4.1308635653142872e-05 -3.5083314372768570e-03  -1.5008289738571733e-04 -2.9822319562538832e-05 -3.1994356833608449e-03  -6.2073003552837414e-05 -4.9299685189118100e-05 -2.7577360963824435e-03  6.3669302572296272e-06 -2.0275853987711736e-04 -3.1475800356731511e-03  9.3245082640220262e-05 8.8872761033818049e-05 -4.1286081619765951e-03  -2.9045891271888062e-04 3.1059512996506767e-05 -4.4540133316697634e-03  5.3113517368914689e-05 9.1081000323217342e-05 -4.7455776405344614e-03  2.2419799334294044e-05 1.1190259559589183e-04 -4.1731797853054803e-03  -1.0715149253736714e-04 1.0933359229811898e-04 -2.6255772106262339e-03  2.0873424168405550e-04 6.0675390832126907e-05 -4.5546142763088658e-03  -2.0605528800945772e-04 -8.2195824439999676e-05 -5.3522309493919161e-03  1.6763641309716837e-05 2.7935777839248804e-04 -3.4653763047631054e-03  -1.4150162128436638e-08 1.3869183018764926e-04 -3.5110732335899356e-03  -2.0614526160643093e-05 -5.6950608823424592e-05 -3.4360731130880545e-03  -1.1145905060067002e-04 5.9477806180303402e-05 -3.0724494405444413e-03  -9.1379488481548661e-05 4.9215686006611748e-05 -4.3817728338558697e-03  6.3505835436204397e-05 1.1781337584841953e-04 -3.1058974878748120e-03  2.4917034862401497e-04 -1.2705238258912204e-05 -3.9027230172131635e-03  2.4519930597020471e-05 4.9005423843761699e-05 -4.0725508403446995e-03  1.0045835872360408e-05 2.0949163481562145e-05 -3.4722301608772904e-03  7.4391581797758113e-07 -1.3126103226776066e-06 -5.6058972368279068e-07  4.0097224541855245e-07 7.0413254550149482e-07 3.9232095593282740e-06  4.1794317604517779e-06 -1.9335163546620799e-06 -8.9657497783338575e-07  -1.0820317544242695e-04 -3.7995127428270285e-05 -2.2174717294117497e-03  7.5066788553645025e-06 -1.0650078806186433e-05 2.1256525069380289e-07  -1.0498218291864082e-05 1.2901077235083266e-05 -4.3809902943144125e-06  -1.7133253408445005e-06 5.2917847164891479e-07 3.7733864901902017e-06  -2.3790401099426487e-06 7.9839723043432277e-07 6.3021809648124846e-06  -3.9156964148499553e-05 -2.0891894641156483e-05 -3.7284028865208446e-03  1.1129827989757006e-04 -4.1439303078124833e-05 -2.7406760062795099e-03  -5.1534966812697011e-04 1.1865395441317199e-04 -4.0545942193637849e-03  8.3340960916535088e-05 -9.1561517547978574e-06 -4.2904478369975071e-03  7.8416590897149451e-05 1.1734177815856536e-04 -3.6907227798207909e-03  -1.9943301922678268e-04 -1.9482834016975478e-05 -2.3915596811459805e-03  -1.4873426438396763e-04 -3.5964984593534800e-04 -2.7969153867922394e-03  -1.0554982363532603e-07 2.7969058673081790e-07 -1.4193067539080462e-06  -3.2488866287975655e-06 -1.9257257804052815e-06 2.6920898114926914e-07  7.8503486924287353e-05 5.3345575458370231e-05 -4.5787949032302629e-03  -3.5864248534310693e-05 2.7435141201087967e-04 -2.4153991448022435e-03  1.2585649709636172e-04 -2.2105057542720397e-04 -5.3536337312710004e-03  4.4350350840702045e-05 -6.6416307430876496e-06 -4.2693897322480662e-03  1.0258783670353640e-07 7.9174611125413886e-09 3.4599313520443167e-06  -3.4248395932392548e-06 -1.2071382705574254e-06 -3.7726760063480336e-07  -1.4248338991725234e-06 2.6269435256326057e-06 2.9962601888831156e-07  2.3970986915257582e-05 -1.8442910023490881e-04 -2.8575741387458060e-03  -1.6739784007526311e-04 -3.8264191065092938e-05 -3.3843574321199576e-03  -1.9719652746614446e-05 -1.1321138385110507e-04 -3.5855044089370351e-03  -1.4730690345457671e-04 -1.6138911567264072e-04 -2.7583156009535923e-03  1.1655848465417951e-04 -1.2051350240716286e-04 -2.1635750576330551e-03  2.9265009384448448e-05 -1.1093018511901746e-04 -4.7276853388034156e-03  7.4398593122883600e-05 -2.6905550319306344e-05 -3.9459539171602994e-03  5.6627534207766610e-05 4.9082848360561416e-05 -3.5999005469571537e-03  -1.3045595150010293e-04 -7.8521686291905659e-06 -2.1718625338676893e-03  6.2543885681078283e-05 -5.0365214971409331e-06 -3.9393533263738737e-03  1.3580432098652610e-04 4.3259839994035104e-05 -4.4462259531216587e-03  -4.8170284674993046e-06 5.7794005977586929e-08 4.0830571240534180e-06  4.5828903060990961e-06 5.4945778698191520e-06 1.1920294501778332e-06  2.1495067498926337e-04 5.6073729023134446e-05 -2.5431952995384147e-03  -1.0947454559353330e-04 1.7203598217548123e-04 -6.9767111151556220e-03  -1.5239732918410457e-05 6.3447363471803590e-05 -3.7956463884806333e-03  -8.7195583768984102e-05 1.1615540719967848e-04 -3.7362502505431552e-03  -1.9022792334326057e-05 1.6769248975899039e-05 -3.9758730123576015e-03  1.3663993170443377e-05 -1.8958203910439735e-05 -1.4683418550795335e-06  -3.5108575586930022e-06 -2.9055528647899962e-06 1.0491427557247716e-06  1.0438655845071503e-04 -1.0733180545866066e-04 -2.6936600031497661e-03  9.8799503544964176e-05 7.3800189389174731e-05 -3.4776968003514962e-03  -1.4479791825370929e-05 -9.6792366625598971e-05 -3.0681228402389756e-03  -1.8427477872109727e-05 7.9369880646228323e-05 -2.5568488554943468e-03  -1.0158027515595195e-05 -7.6903162638215265e-05 -4.2514951398483084e-03  2.3098335165177687e-06 -1.1285620684406231e-06 -6.8699596330234923e-06  -1.3540657243675869e-07 2.4695100033421215e-06 -2.0817714752226901e-06  9.9314089915203722e-07 2.4268448611231054e-06 1.1333709699934073e-06  7.2893947902248225e-05 8.9628158148331538e-05 -4.8353226193949559e-03  -1.1786656940023822e-05 3.5647857818401801e-05 -4.4442797862559716e-03  -6.4473842445417804e-06 5.1225348171031094e-05 -4.2598301631970844e-03  3.0697618439620879e-05 8.2857265870503723e-05 -4.4436935303602109e-03  -3.9962432382439499e-05 -3.0005442928770607e-05 -4.4260043226931412e-03  -8.8657185237537686e-05 -5.6499678546783142e-05 -3.1987374072015278e-03  -5.2782725317817957e-05 -5.8802211933245341e-06 -3.0002616268307901e-03  1.6275140551556600e-06 -2.7565306125804211e-06 5.5432639104040378e-06  -6.0433080684513316e-06 3.8921305523646361e-06 -1.3696695354112909e-06  -3.4511241631557285e-04 -1.7084952918882860e-04 -4.0031548159471944e-03  1.7334141067470803e-04 2.3357874565252653e-05 -3.2678760154564368e-03  6.6295097348207174e-05 2.5898238775551228e-06 -2.6135670574417499e-03  1.3460157685390379e-04 -8.3932828285234815e-05 -2.9309295581305219e-03  -8.4744922445575044e-05 -1.9244377099847864e-04 -3.4975440895637956e-03  -1.8947029939841134e-05 -1.3206620694745220e-04 -3.5016390389488519e-03  -4.1151628084376459e-05 -1.5377715945906308e-04 -4.3570082282844797e-03  3.5817315848620908e-06 4.0140904974239237e-04 -3.7683997958292297e-03  -1.0110741143071424e-04 -2.0418175958856617e-04 -2.5818400992472161e-03  7.6659140683540568e-06 -2.4287210009306338e-05 -3.5716022296262526e-03  -3.4585224522509588e-05 6.3515224850912497e-05 -4.4003735852523656e-03  3.2232975420206912e-05 9.3452784506084090e-06 -4.2253035356226553e-03  -2.9466371080254353e-05 3.8265332353220290e-05 -3.2147470365421500e-03  -1.1343245237221338e-05 -4.1516976644565588e-05 -3.4974010708220976e-03  4.4725696777934083e-06 -7.8898703245227109e-05 -4.3538970758634473e-03  2.9180884596333658e-05 2.1580546524887602e-05 -4.3874180761949199e-03  9.9103962580581418e-06 -3.7129025211631891e-05 -3.8913663036199099e-03  -1.8057745810828514e-05 2.8920950536177930e-07 -3.6006862273240993e-03  -1.5564378831966866e-05 5.1863887800073692e-05 -4.4487634547866941e-03  -2.8747329821831431e-05 -4.2247740525520472e-05 -3.7779501244721166e-03  -1.8360102358515133e-04 -9.0967996250805239e-05 -4.0872815143092756e-03  1.1038706271085079e-04 3.3760053740274060e-05 -4.7028798616367577e-03  2.7303483085748060e-04 -1.4119357662162329e-04 -4.8097923282840061e-03  2.3422843629855990e-05 7.5453822615020180e-05 -3.0340814411802522e-03  5.8872378899986048e-05 -8.2584859571254636e-05 -4.5413086990522804e-03  -5.5896193369511795e-06 1.7331850597235491e-04 -2.8355766099708744e-03  1.8253181216033087e-04 4.3194222461726911e-04 -4.4456510473031017e-03  -1.0917371749347680e-04 -5.7501444226240642e-05 -1.9202484553684229e-03  2.0300707896864475e-04 -2.8528135144278500e-04 -6.4558057830692624e-03  1.3953253079936444e-04 1.8850801408111403e-04 -2.8391368377944041e-03  -1.6471953744608172e-04 -1.9876521094643551e-05 -3.1063690520562923e-03  1.7248279354257785e-04 1.1922661569600598e-04 -3.2103272980710407e-03  3.0146065672186473e-06 2.6868265233945679e-06 -2.8251463011857632e-07  -1.9954030463333645e-06 -1.0430982408890578e-05 -6.7382722162643145e-07  -1.1118338734646080e-06 2.6656737932848282e-06 3.4514138259359276e-07  -1.9358797936725413e-04 -3.3505901003007764e-04 -5.7075198253940624e-03  7.2444517900567022e-05 1.4581971502439171e-04 -3.1432598666501408e-03  1.4897136868716079e-04 2.5628771509274420e-04 -4.6838109621979091e-03  -3.0940901616429231e-04 1.1575045953857429e-04 -4.6000980151717106e-03  -1.6920890585995065e-04 -2.7817813270540246e-04 -4.8767353680048359e-03  1.3497341127088400e-04 -2.1063397650195818e-04 -3.7410838333463902e-03  -6.0762239264221166e-05 3.9699695084843484e-05 -2.4292693152860008e-03  -1.7081297644235438e-04 -1.7281726864252047e-04 -4.0826992166115043e-03  9.6891403710289094e-05 -1.2081989816404688e-04 -2.7185935070523802e-03  3.4094979372949337e-06 3.8307043462058001e-06 -6.0714691986505354e-06  8.3143937158790236e-07 1.1527325457901307e-07 -3.6183421035734863e-06  9.0349587849427676e-05 1.2429869355139205e-04 -3.9003308346501685e-03  8.8626474468656711e-06 -6.3972536921634467e-06 -2.49244