<?xml version="1.0"?>
<VTKFile type="UnstructuredGrid"  version="0.1"  >
<UnstructuredGrid>
<Piece  NumberOfPoints="857" NumberOfCells="3763">
<Points>
<DataArray  type="Float64"  NumberOfComponents="3"  format="ascii">-0.0182597916573 0.126128911972 -0.119588643312  -0.0077641364187 0.0512270443141 -0.07050477713349999  -0.0237180162221 0.16240182519 -0.053058128804  -0.107877351344 0.105669431388 -0.0502408407629  -0.0444478429854 0.116080775857 -0.00235075876117  0.0393674038351 0.112876079977 -0.0491501875222  0.0248903874308 0.0489483103156 0.000152088920004  0.0314915925264 0.114928804338 0.0218031276017  -0.0657326281071 0.0685198307037 0.0497140102088  -0.0355357266963 0.164656624198 0.0508319064975  -0.010538729839 -0.0422629192472 -0.208358153701  -0.0239527057856 0.0135364839807 -0.242119863629  -0.0194642152637 -0.0775559768081 -0.263431429863  -0.08492307364939999 -0.0108216870576 -0.280446648598  -0.08293507993220001 -0.0361198186874 -0.159778758883  -0.0240796487778 -0.0824203491211 -0.148982465267  0.0430508553982 -0.121076337993 -0.234084427357  0.0307756774127 0.0324950888753 -0.198437720537  0.00352357281372 -0.00433266581967 -0.144715368748  -0.0456651262939 0.08372022956609999 0.342343091965  -0.116630032659 0.0117083769292 0.386158525944  -0.08223126828669999 0.0577075146139 0.289406776428  -0.0511222109199 0.00205342215486 0.300772219896  -0.0125984866172 0.0267426930368 0.351842552423  0.0303636882454 0.0561947338283 0.391145974398  -0.0524924062192 0.0543583929539 0.40361738205  -0.07944945245979999 0.130002260208 0.441037595272  -0.000730989675503 0.119443200529 0.385622620583  -0.078488714993 0.137875169516 0.332541137934  0.0142801422626 0.110509291291 0.27100610733  0.0224165506661 0.08303219079970001 0.331783413887  -0.0170432701707 0.161798536777 0.30022162199  0.000811119796708 -0.0515509881079 -0.08419398218390001  0.0888616070151 -0.015075173229 -0.0776951387525  -0.0989535748959 -0.0518730916083 -0.08125374466180001  -0.0433920919895 -0.09785594791170001 0.0106235472485  -0.0488061010838 0.0295096840709 -0.0131453983486  -0.25 0.25 0.5  -0.166666666667 0.25 0.5  -0.25 0.195066730511 0.445658150344  -0.19506166517 0.25 0.445542865294  -0.0213422998786 -0.126349791884 -0.045622177422  -0.117952652276 0.0158270020038 -0.16616243124  -0.0531469397247 0.0490713231266 -0.13630309701  0.0358348339796 -0.131537660956 -0.134171053767  0.0583617314696 -0.115307979286 -0.0462360456586  0.010585160926 -0.0606908276677 0.314250290394  0.078067921102 -0.133790805936 0.331458956003  0.0206208750606 -0.104583717883 0.36723652482  0.0300164371729 -0.13569638133 0.270959883928  0.0797956883907 -0.07311873137949999 0.388136893511  0.0291880238801 -0.0850581228733 0.220644980669  0.0788302049041 -0.07555303722620001 0.284453928471  -0.0465739220381 -0.108428947628 0.305151432753  -0.056692365557 -0.0812899768353 0.234353885055  0.10282895714 0.0630551427603 -0.0452189296484  0.178613707423 0.153893724084 -0.0703043565154  0.0750898644328 0.130835875869 -0.116260357201  0.0179002508521 -0.0400723591447 0.396018892527  0.07961820065980001 -0.020668130368 0.232235535979  -0.00726175494492 -0.022667773068 0.242156982422  0.0524490773678 0.0171752162278 0.310696065426  0.0103002395481 0.0813155695796 0.107229083776  0.00225681974553 -0.008687185123560001 0.0457225777209  0.177950121638 0.25 0.0405701099774  0.151375159621 0.202163234353 -0.00268407491967  0.13042794168 0.172564610839 0.0599601529539  0.184557154775 0.16295710206 -0.00737970136106  0.0827306732535 0.011830884032 0.0299163535237  0.106673434377 0.0676268041134 0.0663062110543  0.25 0.25 0  0.25 0.177947182503 0.0435581305687  0.0251978598535 -0.0201241951436 -0.0233656335622  -0.25 -0.25 0.25  -0.175495340629 -0.25 0.295351832328  -0.25 -0.175776260788 0.294629825204  -0.164853364229 -0.189889326692 0.246240898967  0.111295968676 0.25 -0.00354384794953  0.0417815256417 0.25 0.0264120515999  0.0577150444892 0.25 -0.0418173710713  0.035034801811 0.196921139956 -0.0497792549431  -0.115254960954 0.0352221727371 -0.0357825122774  0.0360979661345 0.0743419006467 -0.130612716079  0.08110298216340001 0.0143552683294 -0.135737240314  0.0281950440258 0.110801942647 -0.38559025526  -0.000352636008756 0.154027625918 -0.45018479228  0.0220217909664 0.07910815626379999 -0.445265561342  -0.041934799403 0.09297795593740001 -0.440330862999  -0.115356497467 0.128115877509 0.0303980205208  -0.08144567906859999 0.192924261093 -0.0396481454372  -0.0503155887127 -0.140062868595 0.370642662048  0.0181560348719 -0.191118896008 0.319997102022  -0.09442232549189999 -0.0766885429621 0.347179293633  -0.10306725651 -0.0245223585516 0.261891931295  -0.0371639840305 -0.192689821124 0.258922994137  -0.08778057992460001 -0.193450272083 0.293951839209  -0.116932563484 -0.137108251452 0.278956532478  -0.0434515699744 -0.19969072938 0.340430229902  -0.016621209681 -0.143479332328 0.208528921008  -0.0799133181572 -0.177766740322 0.206858798862  -0.0340202823281 -0.07231882214550001 0.405357718468  -0.153045728803 -0.0703692808747 0.28540495038  -0.0647673308849 -0.069349065423 -0.297796696424  -0.0468406006694 -0.118580199778 -0.331259429455  -0.0636249184608 -0.122360698879 -0.235275790095  -0.137311711907 -0.115820750594 -0.279358655214  -0.25 -0.25 0.333333333333  -0.00222280388698 -0.0275516584516 -0.327156513929  0.0233143884689 -0.124395690858 -0.330935031176  -0.00544846989214 -0.0444226972759 -0.392852008343  -0.07202984392639999 -0.0450558848679 -0.379192590714  -0.128861442208 -0.0482712239027 -0.325591087341  -0.0319190612757 0.25 0.27473160228  0.0259018652141 0.196524605155 0.343851953745  -0.0424101948738 0.196461260319 0.324036180973  -0.08801463991400001 0.193724930286 0.280150324106  -0.051391992718 0.129726842046 0.244459152222  0.0793330296874 0.131078347564 0.273738384247  0.0304427426308 0.197590425611 0.258007407188  0.139736711979 -0.103549621999 0.308288753033  0.117407329381 -0.00031748006586 0.284001767635  0.17845864594 0.0137020656839 0.2717012465  0.133446916938 -0.07468281686309999 0.252671837807  0.193237304688 0.0103836003691 0.32706490159  0.108656100929 -0.016409387812 0.370573759079  0.195593327284 -0.0705924406648 0.374003827572  0.204297035933 -0.0882691517472 0.283604085445  0.15987212956 -0.0232784096152 0.211559042335  0.103109702468 -0.0715631917119 0.185957938433  0.25 -0.177950121638 0.0405701099774  0.25 -0.111295968676 -0.00354384794953  0.168315500021 -0.181550845504 -0.0129796266556  0.203061833978 -0.0839376300573 0.0201103240252  -0.123973377049 0.0421161539853 0.0831994190812  0.10652089864 0.041568480432 0.133020982146  -0.00508088478819 0.00464248098433 0.118765294552  0.0384838804603 0.0542355030775 0.219570666552  0.0556482039392 0.09942726045850001 0.165778696537  0.25 -0.25 0  0.25 -0.17904445884 -0.0421267671166  0.0085972994566 0.139411628246 0.206887423992  -0.0427397117019 0.0734880268574 0.199836358428  0.25 -0.25 0.166666666667  0.177338154858 -0.25 0.209433902167  0.178222204231 -0.25 0.126578397361  0.180748909712 -0.154124230146 0.180074676871  0.118582360446 0.0498475395143 0.233844980597  0.113276541233 0.115120351315 0.208414897323  0.068451166153 0.123325429857 0.09300038218499999  0.08695217221980001 0.18308262527 0.11987875402  0.1366494596 0.0978636816144 0.125807240605  0.0170362386853 0.165571182966 0.116205818951  -0.075325883925 -0.13042730093 -0.120773427188  -0.191016584635 -0.1764793396 -0.0778442546725  -0.102759346366 -0.20253264904 -0.07015967369080001  -0.126150563359 -0.115044787526 -0.0573479756713  -0.138729035854 -0.104583211243 -0.134180948138  -0.147993162274 -0.138949289918 -0.203295826912  -0.180331096053 -0.192031860352 -0.160557568073  -0.194399222732 -0.0846866071224 -0.148938387632  -0.11259970814 -0.078034222126 -0.193649172783  0.0326924659312 -0.122268341482 0.0296003930271  0.0215157996863 -0.180560961366 -0.0757267251611  0.0956164896488 -0.0493310950696 -0.0164182558656  0.112129375339 -0.112067811191 -0.105549775064  0.127802968025 -0.106147237122 -0.0110959038138  -0.0854129120708 -0.015297700651 0.056893799454  -0.0204317308962 -0.0795602425933 0.117458000779  -0.178222204231 0.25 0.126578397361  -0.177947182503 0.25 0.0435581305687  -0.107976816083 0.25 0.0905854563709  -0.157577678561 0.178241759539 0.0969507619739  0.25 -0.25 0.333333333333  0.25 -0.25 0.25  0.175776260788 -0.25 0.294629825204  0.25 -0.175495340629 0.295351832328  0.0932372882962 -0.0430554822087 0.0724518448114  -0.044769000262 -0.00661279587075 0.403999477625  -0.194478780031 -0.0247275307775 0.332954645157  -0.173761367798 -0.0806607827544 0.396263659  -0.137637495995 0.00523930834606 0.315887242556  0.0864742994308 -0.139340251684 0.176064118743  0.105438224971 -0.136641919613 0.253711819649  0.0308670303835 -0.25 -0.136809572586  0.0367561832589 -0.25 -0.219583441074  0.0925811678171 -0.20055809617 -0.19996842742  0.0127155454829 -0.193433105946 -0.225977659225  0.0415658205748 -0.200880005956 0.196522325277  0.0373581312597 -0.119548290968 0.120048768818  -0.0954102815882 -0.25 0.346414074494  -0.101368582479 -0.25 0.251933327382  -0.0374909392175 -0.25 0.286229296012  0.0852289572358 0.109103307128 -0.27055695653  0.07707493752239999 0.127253636718 -0.199824258685  0.128097131848 0.07648140937090001 -0.209757223725  0.154867321253 0.13628205657 -0.212952241302  0.08678253740069999 0.189277544618 -0.274375885725  0.127699971199 0.0803090333939 -0.326344817877  0.0577741526067 0.0601542405784 -0.31936660409  0.0525139421225 0.129102528095 -0.326874881983  0.0251371748745 0.175572559237 -0.261228203773  0.0199144631624 0.0927290171385 -0.265960127115  -0.148952946067 -0.121583275497 -0.374568909407  -0.25 0.177950121638 0.0405701099774  -0.25 0.111295968676 -0.00354384794953  -0.175531774759 0.135734900832 0.0562076568604  -0.178730383515 0.191659659147 -0.00562386959791  -0.0244714934379 -0.108516678214 -0.387223660946  -0.09279609471560001 -0.170035287738 -0.445968538523  -0.0281062982976 -0.0
[...]
<PointData  Scalars="f_84"> 
<DataArray  type="Float64"  Name="f_84"  format="ascii">3.6666471067516491e-03  4.1365599276213848e-03  4.2990937274677479e-03  4.3274559405253885e-03  4.7836601107988678e-03  4.3408096042240009e-03  4.8088784696328742e-03  5.0145977910160721e-03  5.2815995205786137e-03  5.2921121984565427e-03  2.8199982218026420e-03  2.4981745025625260e-03  2.2947572782938642e-03  2.1334880182509487e-03  3.2826100088298644e-03  3.3886286568545311e-03  2.5736637385946346e-03  2.9148373858460990e-03  3.4247142186064031e-03  8.0934863017128253e-03  8.4757793712828180e-03  7.5873673634430511e-03  7.6955842481573212e-03  8.1964785341224807e-03  8.5282361605828506e-03  8.6432418855646037e-03  9.0404423408169954e-03  8.4690077227713885e-03  7.9706754559363633e-03  7.3920194699096187e-03  8.0104494971219072e-03  7.6973165528481657e-03  4.0045460853460873e-03  4.0659611089849208e-03  4.0339351542151942e-03  4.9105237339043583e-03  4.6834634254958691e-03  9.1826369725540313e-03  9.3278824228145117e-03  9.0317460036102425e-03  9.0807214333036828e-03  4.3726226473995685e-03  3.2230626847531197e-03  3.5062801101352088e-03  3.5300121808631377e-03  4.3668811584862688e-03  7.8300400429686685e-03  7.9633179200018570e-03  8.3080246311327630e-03  7.4106865732045000e-03  8.5286461870904221e-03  6.9157762346440709e-03  7.5392746011842451e-03  7.7397943988383707e-03  7.0397354683834181e-03  4.3746613118492940e-03  4.1226513242454141e-03  3.7004285628169172e-03  8.5864456629192211e-03  7.0215982698140769e-03  7.1193547592082705e-03  7.8011814203414187e-03  5.8307194183858432e-03  5.2474359626702577e-03  5.1254591407367163e-03  4.7876930639045899e-03  5.3546393372314576e-03  4.7488463088324771e-03  5.0930479288963893e-03  5.4412549973290739e-03  4.7686493224277735e-03  5.2424943660169480e-03  4.5836933117410633e-03  7.0809200977691132e-03  7.5623864885755532e-03  7.6021715722563417e-03  7.1633557382139905e-03  4.7649734620348987e-03  4.9963547391574546e-03  4.4259707639282215e-03  4.3308328552075634e-03  4.4678796769496709e-03  3.5567288492447074e-03  3.5105099364201604e-03  1.1152254400193739e-03  4.8914843367683556e-04  5.2964104026812832e-04  5.8386080182941575e-04  5.0991975992532683e-03  4.4262312385515735e-03  8.3331283196782253e-03  7.8960247440799380e-03  8.1093533336414250e-03  7.3103602949604850e-03  7.2867557133757402e-03  7.6490872701737728e-03  7.4857235934462007e-03  8.0600000387100711e-03  6.8023157111461062e-03  6.7709929071218177e-03  8.6924888754504152e-03  7.5555763709748997e-03  1.9682872123392057e-03  1.6490963351373914e-03  2.5674493384789240e-03  2.1537016856097799e-03  8.0352355605471208e-03  1.6800364179557022e-03  1.6508465869232985e-03  1.0473592364786302e-03  1.1826616877444597e-03  1.7012131273255126e-03  7.4631442761211517e-03  8.0783464521956786e-03  7.8980069301760724e-03  7.4604075716442255e-03  7.1497717449742239e-03  7.4316698085554675e-03  7.2946725356210053e-03  7.7833290797822028e-03  7.5518693521037994e-03  7.4146657403539084e-03  7.2104464069157204e-03  7.9335084655172833e-03  8.3296424893610169e-03  8.3729732083110443e-03  7.5517331038887723e-03  6.8224400998895271e-03  6.5944570820715984e-03  5.2447866855674947e-03  4.7987049752644256e-03  4.6544441855930294e-03  5.0008476122991568e-03  5.6021762671069966e-03  6.0819664929637760e-03  5.9434892077199165e-03  6.9033443249673738e-03  6.3945510715609369e-03  4.7846885567761639e-03  4.3550827556936081e-03  6.7872813366543928e-03  6.7194253278041113e-03  6.4876585315835050e-03  6.8756378085975053e-03  5.9815632481468976e-03  6.5210903405213579e-03  7.0498489985970298e-03  6.7984186422328048e-03  5.6947892240528505e-03  5.9625537362049726e-03  6.0136141972990716e-03  5.9174134820786451e-03  3.6572734141789038e-03  4.0643856167417100e-03  4.1408601874844278e-03  4.2634126556063629e-03  3.5347976073163302e-03  2.8695674207404949e-03  3.2890028749595966e-03  3.3946165962669785e-03  2.9588920047463269e-03  5.0943245725633274e-03  4.0781934150451258e-03  4.6532613608857038e-03  3.7976991040765328e-03  4.7052089987699970e-03  5.3499073493497931e-03  5.9318323822063410e-03  6.0063794726378924e-03  5.1981819937916042e-03  5.6384452874664323e-03  5.7251338174622987e-03  8.0199686309113047e-03  7.0974193546356158e-03  7.5660982744474876e-03  7.5895401229221365e-03  5.5015315553145865e-03  8.6591028212634515e-03  7.9858138157184230e-03  8.5571509186038071e-03  7.8485340267235443e-03  6.4940231828727706e-03  7.2497601068518538e-03  3.4940784566309026e-03  2.6674929183604780e-03  2.9000186706498545e-03  2.6537670433208860e-03  6.7043911961592803e-03  5.9555464096832629e-03  8.0808879990233919e-03  7.3060432239996790e-03  7.5740775557851230e-03  2.2247501389269786e-03  2.8979919515271686e-03  2.8023151796166433e-03  2.7644825377784541e-03  2.1947636477507321e-03  1.6918742785246290e-03  1.7548398803344126e-03  1.6896458988568794e-03  2.3121921910355574e-03  2.2675682395686407e-03  1.2463424273570368e-03  5.1093256924834313e-03  4.7687942497910982e-03  5.3117602958379362e-03  4.7692378607944079e-03  1.1008965120366551e-03  5.4496020459318640e-04  5.5175055014910818e-04  4.7087781796080041e-03  4.4412581226431457e-03  4.4243338635077808e-03  4.3706007119128755e-03  3.6666820713069114e-03  3.7698775197573500e-03  3.1821670240849533e-03  8.4552070830523488e-04  8.3329161085581136e-04  1.6269796344816146e-03  1.1905433320409059e-03  2.4332216567920714e-03  2.4213777534877142e-03  3.5847126794748938e-03  3.0296247876613158e-03  2.5924718389536121e-03  3.0764395063638864e-03  5.1802021003192322e-03  4.7693397083927655e-03  4.7626454259319263e-03  4.9030037207828045e-03  3.3984461594283220e-03  2.9673209008808802e-03  6.5927967132603776e-03  6.4376741733769690e-03  7.4184070123197235e-03  7.4190053130249395e-03  8.3479332191654949e-03  1.1503683050974949e-03  5.3029877451392696e-04  1.2629286586615159e-03  9.5471633527419825e-04  5.2913504644130276e-04  1.1098654436803880e-03  1.7762078640979945e-03  1.9446957450650569e-03  1.2200153000591133e-03  1.1059188033988841e-03  1.2426169479082662e-03  5.9057002229374476e-04  1.6208105033434200e-03  1.5527458293049963e-03  2.1249845137225280e-03  2.2225056523889944e-03  2.1265761154666304e-03  8.0775140032310032e-03  7.9332029276401768e-03  7.1999743492836372e-03  8.3757829522200823e-03  9.1133046655115374e-03  9.1616986923173018e-03  6.7951518901547782e-03  7.1035079166803195e-03  6.5204330999352007e-03  7.0926968314301000e-03  9.1089685942849410e-03  9.1359046240342794e-03  8.5182528460656191e-03  8.0014879872775495e-03  7.9333130467994610e-03  8.4040567103636325e-03  8.7252386479120311e-03  7.6811254116587466e-03  0.0000000000000000e+00  0.0000000000000000e+00  0.0000000000000000e+00  7.1819216993533122e-03  7.6659483054040646e-03  7.0240716550712765e-03  1.5302732374882395e-03  7.6449555811276099e-04  1.0785823672350805e-03  4.7258486152333499e-03  4.3815302549880591e-03  9.4559906722233873e-03  9.5230683952184283e-03  9.5520848253732027e-03  8.9700314310434629e-03  8.9560928754652269e-03  8.3837996111531948e-03  9.1100426951947148e-03  8.9931385352872741e-03  6.1209295002964551e-03  5.3052611541835101e-03  6.1579661889775072e-03  4.4459729947582752e-03  5.0826085629239069e-03  4.3348200922135142e-03  5.1273199343353851e-03  6.3390230574728989e-03  6.7322271663374155e-03  6.1992194240699299e-03  6.3689186994553022e-03  6.8069789181007066e-03  6.0596748866077648e-03  6.4579765596765211e-03  6.2073750741270398e-03  6.7593285850631336e-03  9.0626598389511020e-03  7.1521965492594586e-03  7.5805482756286912e-03  7.6225105114487652e-03  7.0785614437099053e-03  3.7519656346059202e-03  4.0782898214110769e-03  3.5056507366867302e-03  3.3432697626837289e-03  2.8963999001919080e-03  3.2813568647802088e-03  3.7226901180176459e-03  4.1362879316279143e-03  2.9566435313947642e-03  3.6029456523453975e-03  3.4656094798958272e-03  4.7081469959722325e-03  4.3350771133516533e-03  0.0000000000000000e+00  0.0000000000000000e+00  0.0000000000000000e+00  7.5098653877723283e-04  4.4954876798463115e-03  5.8146067513750710e-04  1.6510942882209945e-03  9.1051668722165143e-04  6.3016867999183043e-03  6.7908683084993617e-03  6.0187919898814016e-03  6.4650433414632528e-03  1.8736212955132970e-03  2.5852661594022094e-03  1.6441306233433771e-03  1.4689946786651188e-03  9.4593325207749130e-04  1.7396444736681822e-03  1.5374870875982619e-03  1.9974848119796410e-03  8.0066257554567057e-03  5.6552948338251113e-03  9.1161418890732069e-03  9.1121779340502407e-03  6.7858637205017412e-03  9.5581450046971581e-03  9.5873160596493014e-03  9.0561808981711473e-03  8.8472898782610016e-03  4.7733769717856365e-03  5.3138954030106057e-03  4.4246484783519724e-03  9.5954978355825195e-03  9.1461491136516967e-03  2.9840560166196246e-03  2.9205601280973353e-03  2.2185617193206716e-03  3.0741505748110342e-03  9.1069995169662001e-03  5.5093519057936363e-03  5.9785044299112090e-03  0.0000000000000000e+00  0.0000000000000000e+00  0.0000000000000000e+00  7.7753718644157823e-04  9.1286958962071094e-03  2.2542694034906161e-03  1.7447139087887781e-03  1.9035005887408887e-03  2.4151088355946417e-03  2.2570762532335021e-03  2.8664327716142633e-03  2.3348054706751114e-03  1.5951707547134817e-03  1.7540015594095135e-03  1.2548962837909225e-03  1.5512097185235263e-03  0.0000000000000000e+00  0.0000000000000000e+00  0.0000000000000000e+00  9.9870832639269570e-04  0.0000000000000000e+00  0.0000000000000000e+00  1.7466407432662355e-03  1.6755996153083835e-03  8.9612158401664282e-04  1.0905896937029095e-03  5.2183284687229447e-04  5.0687647957985474e-04  4.8794823411648709e-04  5.2608757339867663e-03  5.1093538966563825e-03  4.4213277731403834e-03  5.3312969324119611e-03  5.2492148478311745e-03  6.0586979746115347e-03  6.7163865057134385e-03  6.1316165758673411e-03  5.8884798614919510e-03  0.0000000000000000e+00  5.1133169154102655e-04  7.9834377607050505e-03  2.7086469137928538e-03  2.3197680124663108e-03  1.3014769373857521e-03  2.2283497779451767e-03  2.2555324576701312e-03  2.7286191693546413e-03  9.3951228718914780e-03  9.4168563139733607e-03  9.5303485297482601e-03  8.8662615262040910e-03  5.2224444828757755e-03  5.1124866062581950e-03  8.9225223011985596e-03  8.8573160225210810e-03  0.0000000000000000e+00  0.0000000000000000e+00  8.9015863188050600e-03  5.0289170352422682e-04  8.1600313700528632e-03  2.9284082377072063e-03  6.7908894929444913e-03  7.1048588593979273e-03  6.2212478699794444e-03  5.9127422274291028e-03  6.3545255861872166e-03  6.1550773472014335e-03  5.3354458813234338e-03  5.8778450962035031e-03  6.7804501890157817e-03  6.3659260701646962e-03  5.3037346666484778e-03  2.8770737000198229e-03  6.3197509450885359e-03  5.6620529845070868e-03  6.0599571105019057e-03  8.0216172392133381e-04  1.5603757104683084e-03  6.0791072101534184e-03  6.3157766298329136e-03  9.4816478644638054e-03  9.4310779646668563e-03  9.5559957516174708e-03  8.8589271978688541e-03  6.7652540898399992e-03  5.7000434223148291e-03  9.4246830128161783e-03  9.4587212073934182e-03  9.5616674138855988e-03  8.9026691601171524e-03  4.4096464567020916e-03  1.7603465654025476e-03  1.1420062045280487e-03  1.7365619965696863e-03  9.4430703791552988e-03  9.4675638570232371e-03  9.5349775003292416e-03  8.8832314347842452e-03  4.1944500552905297e-03  3.5023250442541179e-03  2.1361833820557107e-03  1.8001778688245462e-03  2.2634810540846711e-03  6.7853264562082382e-03  5.0348488690798989e-03  2.7227425020759709e-03  2.7813729049415551e-03  2.1868653217291395e-03  0.0000000000000000e+00  0.0000000000000000e+00  9.1487546402371795e-03  9.1073050801448053e-03  4.8333456212266476e-03  6.2707019665152628e-03  5.7588194827362556e-03  6.1556798824751544e-03  8.9266788250929353e-03  8.7475925949482489e-03  8.1397423015889675e-03  7.4562209091937719e-03  7.3889723184160051e-03  7.1724088272791418e-03  6.9581234879085071e-03  9.5759247514434313e-03  9.0025818242852156e-03  8.8708656427624565e-03  8.7013541978146289e-03  8.0308310206916381e-03  7.5650132377673950e-03  3.6432815711682086e-03  2.7568393876211380e-03  3.2382088798445473e-03  3.9760973091840634e-03  3.1286740654336738e-03  2.4039051205324395e-03  0.0000000000000000e+00  7.6868895428877160e-04  5.2649637838262677e-04  1.1326083866883237e-03  5.4294380583897307e-04  0.0000000000000000e+00  0.0000000000000000e+00  1.2369058966316545e-03  1.6295324821633190e-03  1.0223486993947595e-03  8.2386046242700569e-04  1.4752677709238059e-03  0.0000000000000000e+00  3.1017558116502100e-03  2.7912883095397587e-03  2.4156068570174161e-03  2.7446142893881656e-03  9.7238049969581384e-03  8.7780825552740537e-03  9.0565281107716188e-03  2.4684130816763003e-03  2.3834695320159522e-03  9.1175531650753185e-03  9.1422284805162922e-03  9.0804735029123961e-03  9.0762627168131244e-03  4.0238177696091480e-03  3.6672652372340057e-03  7.9051373814932287e-04  1.1260007293069133e-03  7.3447715469425988e-04  1.6625029984195464e-03  2.2044491526548257e-03  4.9077935625081275e-03  5.3501705097704702e-03  2.9158084602330723e-03  1.6809573891569088e-03  8.3693095810544616e-04  1.3587587506256648e-03  1.2164707818084841e-03  3.6212073403895633e-03  4.1417313326150952e-03  4.0525068877690640e-03  3.2814732157067316e-03  3.3262228189177771e-03  3.7187208749331906e-03  7.9509040712322804e-03  7.5277674105828987e-03  8.4664255659595827e-03  8.0349237490891269e-03  8.9101921105432334e-03  8.7722982106892694e-03  8.1479396331589557e-03  7.2201279666367895e-03  7.0217484780136039e-03  9.5632892773601444e-03  9.0092197864796060e-03  8.9365143638152345e-03  8.4458961703977077e-03  3.0267721734907548e-03  1.7087157932459166e-03  1.1712522127383682e-03  1.3378627235713396e-03  1.5694833736953839e-03  1.3157026781190225e-03  2.0051171283441897e-03  2.3251824311027792e-03  9.5678351037864675e-03  9.5893173691899442e-03  5.4748418449133420e-04  1.4896723104400043e-03  0.0000000000000000e+00  5.6140807449283087e-03  5.8850992227917854e-03  5.7188501695479106e-03  5.9934357911744333e-03  6.5057160877800002e-03  7.9655870441042143e-04  4.4382125878423872e-03  5.4983403415607129e-03  6.0723559501758518e-03  6.3869035102093203e-03  6.1036684842771319e-03  5.0608261697933947e-03  6.7511099554350140e-03  5.2588226096773492e-03  2.4431002191649342e-03  2.7476325812488900e-03  1.2803101553458339e-03  1.0366049419345469e-03  1.0343394764930260e-03  4.9655131536649466e-04  5.5703501072007641e-04  6.8040866077915723e-03  8.3446955942397660e-03  8.4824293545481128e-03  8.9566957050703395e-03  8.4954968010881142e-03  8.8086969549956030e-03  7.9746025502395925e-03  1.4501853404849184e-03  2.1175911670494778e-03  2.2539651360962919e-03  2.2300875441443008e-03  5.3470194467955881e-03  5.8863340568645157e-03  8.2899619959927323e-04  7.2247121624358459e-04  5.9239489931004856e-03  1.1399588486154006e-03  1.7539638213436739e-03  8.1196151547551941e-04  9.5998118843349592e-03  5.1742778553855748e-04  3.1810825609341433e-03  3.9855475401243375e-03  3.1409933206592994e-03  5.6456152060301744e-03  6.0129192577030493e-03  8.7583799434155386e-03  6.7327280505479863e-03  6.7342500808721404e-03  6.8408082866790922e-03  0.0000000000000000e+00  5.2636315079300315e-04  5.3427520148494846e-03  2.0543564749693436e-03  2.4800943956393346e-03  7.4034003571763858e-03  6.7960583541707689e-03  6.1712634753980262e-03  4.4547661951023490e-03  4.4091067288921136e-03  2.6688113329842722e-03  2.2130578213891599e-03  2.4639062865168533e-03  3.1582815735109776e-03  2.4252842589878266e-03  2.7765487041361272e-03  2.8600961613611565e-03  6.3199611469551735e-03  2.0073793629990116e-03  2.0771028182929455e-03  5.5647892987678547e-03  5.5113546991063462e-03  2.0613921445441796e-03  3.6353319449138190e-03  3.9634199192015189e-03  3.1725106560651995e-03  3.4065476031503858e-03  3.1559674137630546e-03  2.3658240025002468e-03  2.8370266970008736e-03  2.7127230392519773e-03  4.0413445464623186e-03  4.4379149731273377e-03  0.0000000000000000e+00  3.2508084352371657e-03  8.0227941156233180e-03  2.0606138509554465e-03  2.3780379129709453e-03  1.1330740127941247e-03  0.0000000000000000e+00  3.6352003699125124e-03  3.2549390865533345e-03  0.0000000000000000e+00  0.0000000000000000e+00  4.0350340638285543e-03  0.0000000000000000e+00  0.0000000000000000e+00  6.6781442635911758e-04  4.8973157486870231e-04  2.9218912133539337e-03  3.7894063431450783e-03  5.5118251624190207e-03  6.9170686121507929e-03  2.3547382963824103e-03  2.0608559628802854e-03  2.4998607238940467e-03  6.3212893070147564e-03  5.7203052764067137e-03  7.4304844845048731e-03  7.1096770216244644e-03  3.1393644514442916e-03  2.8822862323299751e-03  2.7186695519555650e-03  2.0226280486212011e-03  2.2646835554595035e-03  2.8759387605518049e-03  4.9616427876454151e-04  6.7757122645370083e-03  6.7694544828595044e-03  6.2129010009805228e-03  6.3878553613342191e-03  5.9162781367662889e-03  9.5577400670012174e-03  8.8853996307972881e-03  8.1832524309056257e-03  5.7636593284088001e-03  8.1091738660667937e-03  7.2701869251948787e-03  2.3272523348473926e-03  2.0967493749782878e-03  2.0431691357461392e-03  2.4817686535758268e-03  1.4709535231890749e-03  2.4390003775503228e-03  1.2765194919094071e-03  3.4609680395998833e-03  7.0103572593096662e-04  0.0000000000000000e+00  7.6313403534037779e-03  8.4063146586612295e-03  8.0512031432043007e-03  7.3010518006721131e-03  8.1618110451698225e-03  9.5877149920481734e-03  2.4462938355991537e-03  1.3643720913100762e-03  4.3650294286865466e-03  0.0000000000000000e+00  0.0000000000000000e+00  7.5376667533491853e-04  5.2912167519197592e-04  1.6240492079743222e-03  5.4173219418810620e-04  0.0000000000000000e+00  8.2468378926995288e-04  0.0000000000000000e+00  0.0000000000000000e+00  7.1612644674242363e-04  9.3351188942870731e-03  9.4786497236459856e-03  9.5696356671984579e-03  9.0286446632319231e-03  9.5354623705148720e-03  0.0000000000000000e+00  5.1201982632315005e-04  0.0000000000000000e+00  0.0000000000000000e+00  0.0000000000000000e+00  0.0000000000000000e+00  0.0000000000000000e+00  2.7862369178614033e-03  9.5627499733580961e-03  9.4989710483173381e-03  8.8626374455486878e-03  9.5368206016108164e-03  9.5506440468810065e-03  8.8826298638557642e-03  9.5610030930717727e-03  9.5794879213497997e-03  4.8077990429011988e-03  4.8834306021361355e-03  0.0000000000000000e+00  5.6632383461111980e-03  5.7028713076810750e-03  4.0570049021539370e-03  3.6090235870435169e-03  4.4554504701364616e-03  4.8429569096810421e-03  6.5051944234794032e-03  9.5587242471075872e-03  9.5355831940674637e-03  0.0000000000000000e+00  9.5768689436513919e-03  9.4912408175638115e-03  5.1586450949012231e-03  3.5067359582332432e-03  0.0000000000000000e+00  9.6189911714982207e-04  4.4184930401747965e-03  0.0000000000000000e+00  3.5848674319654311e-03  3.3170558048086001e-03  1.4764443316633235e-03  4.4142637042343408e-03  8.1810158971176768e-03  9.4567620126430173e-03  4.0618644750285184e-03  4.0461725646143256e-03  3.6498216832246268e-03  3.3184870430918766e-03  9.4360676673497165e-03  8.9430804082022142e-03  3.3413781877560775e-03  9.1899434996703614e-03  3.6725997783149116e-03  9.3335064254051608e-03  9.5807959916343749e-03  5.0384523601939386e-03  4.4620230275426937e-03  9.5582191679274061e-03  9.4134448643291135e-03  9.5158526405317804e-03  7.1163471612002444e-03  8.1223104080956031e-03  8.3897314894757630e-03  7.9953060492412922e-03  8.2239766912275102e-03  7.5852675345098796e-03  8.8846185264209177e-03  9.4725236276800486e-03  9.1762309395924946e-03  9.0136399971719773e-03  9.0591705826650864e-03  9.0964413842953961e-03  9.0821151795183602e-03  6.8034988200252767e-03  6.5355113222869566e-03  6.8157068994483703e-03  7.6131173774090883e-03  9.0421667181153336e-03  0.0000000000000000e+00  1.5069921732965474e-03  2.0694740346001192e-03  7.5900327512704578e-04  2.4655971108901208e-03  3.5103221089126451e-03  3.8192187804428610e-03  2.4076494731738868e-03  9.5629042641257977e-04  7.4147845648500302e-03  1.5220488372957972e-03  8.8892693785484322e-03  0.0000000000000000e+00  5.3353110324606051e-03  2.9864380652437992e