<?xml version="1.0"?>
<VTKFile type="UnstructuredGrid"  version="0.1"  >
<UnstructuredGrid>
<Piece  NumberOfPoints="857" NumberOfCells="3763">
<Points>
<DataArray  type="Float64"  NumberOfComponents="3"  format="ascii">-0.0182597916573 0.126128911972 -0.119588643312  -0.0077641364187 0.0512270443141 -0.07050477713349999  -0.0237180162221 0.16240182519 -0.053058128804  -0.107877351344 0.105669431388 -0.0502408407629  -0.0444478429854 0.116080775857 -0.00235075876117  0.0393674038351 0.112876079977 -0.0491501875222  0.0248903874308 0.0489483103156 0.000152088920004  0.0314915925264 0.114928804338 0.0218031276017  -0.0657326281071 0.0685198307037 0.0497140102088  -0.0355357266963 0.164656624198 0.0508319064975  -0.010538729839 -0.0422629192472 -0.208358153701  -0.0239527057856 0.0135364839807 -0.242119863629  -0.0194642152637 -0.0775559768081 -0.263431429863  -0.08492307364939999 -0.0108216870576 -0.280446648598  -0.08293507993220001 -0.0361198186874 -0.159778758883  -0.0240796487778 -0.0824203491211 -0.148982465267  0.0430508553982 -0.121076337993 -0.234084427357  0.0307756774127 0.0324950888753 -0.198437720537  0.00352357281372 -0.00433266581967 -0.144715368748  -0.0456651262939 0.08372022956609999 0.342343091965  -0.116630032659 0.0117083769292 0.386158525944  -0.08223126828669999 0.0577075146139 0.289406776428  -0.0511222109199 0.00205342215486 0.300772219896  -0.0125984866172 0.0267426930368 0.351842552423  0.0303636882454 0.0561947338283 0.391145974398  -0.0524924062192 0.0543583929539 0.40361738205  -0.07944945245979999 0.130002260208 0.441037595272  -0.000730989675503 0.119443200529 0.385622620583  -0.078488714993 0.137875169516 0.332541137934  0.0142801422626 0.110509291291 0.27100610733  0.0224165506661 0.08303219079970001 0.331783413887  -0.0170432701707 0.161798536777 0.30022162199  0.000811119796708 -0.0515509881079 -0.08419398218390001  0.0888616070151 -0.015075173229 -0.0776951387525  -0.0989535748959 -0.0518730916083 -0.08125374466180001  -0.0433920919895 -0.09785594791170001 0.0106235472485  -0.0488061010838 0.0295096840709 -0.0131453983486  -0.25 0.25 0.5  -0.166666666667 0.25 0.5  -0.25 0.195066730511 0.445658150344  -0.19506166517 0.25 0.445542865294  -0.0213422998786 -0.126349791884 -0.045622177422  -0.117952652276 0.0158270020038 -0.16616243124  -0.0531469397247 0.0490713231266 -0.13630309701  0.0358348339796 -0.131537660956 -0.134171053767  0.0583617314696 -0.115307979286 -0.0462360456586  0.010585160926 -0.0606908276677 0.314250290394  0.078067921102 -0.133790805936 0.331458956003  0.0206208750606 -0.104583717883 0.36723652482  0.0300164371729 -0.13569638133 0.270959883928  0.0797956883907 -0.07311873137949999 0.388136893511  0.0291880238801 -0.0850581228733 0.220644980669  0.0788302049041 -0.07555303722620001 0.284453928471  -0.0465739220381 -0.108428947628 0.305151432753  -0.056692365557 -0.0812899768353 0.234353885055  0.10282895714 0.0630551427603 -0.0452189296484  0.178613707423 0.153893724084 -0.0703043565154  0.0750898644328 0.130835875869 -0.116260357201  0.0179002508521 -0.0400723591447 0.396018892527  0.07961820065980001 -0.020668130368 0.232235535979  -0.00726175494492 -0.022667773068 0.242156982422  0.0524490773678 0.0171752162278 0.310696065426  0.0103002395481 0.0813155695796 0.107229083776  0.00225681974553 -0.008687185123560001 0.0457225777209  0.177950121638 0.25 0.0405701099774  0.151375159621 0.202163234353 -0.00268407491967  0.13042794168 0.172564610839 0.0599601529539  0.184557154775 0.16295710206 -0.00737970136106  0.0827306732535 0.011830884032 0.0299163535237  0.106673434377 0.0676268041134 0.0663062110543  0.25 0.25 0  0.25 0.177947182503 0.0435581305687  0.0251978598535 -0.0201241951436 -0.0233656335622  -0.25 -0.25 0.25  -0.175495340629 -0.25 0.295351832328  -0.25 -0.175776260788 0.294629825204  -0.164853364229 -0.189889326692 0.246240898967  0.111295968676 0.25 -0.00354384794953  0.0417815256417 0.25 0.0264120515999  0.0577150444892 0.25 -0.0418173710713  0.035034801811 0.196921139956 -0.0497792549431  -0.115254960954 0.0352221727371 -0.0357825122774  0.0360979661345 0.0743419006467 -0.130612716079  0.08110298216340001 0.0143552683294 -0.135737240314  0.0281950440258 0.110801942647 -0.38559025526  -0.000352636008756 0.154027625918 -0.45018479228  0.0220217909664 0.07910815626379999 -0.445265561342  -0.041934799403 0.09297795593740001 -0.440330862999  -0.115356497467 0.128115877509 0.0303980205208  -0.08144567906859999 0.192924261093 -0.0396481454372  -0.0503155887127 -0.140062868595 0.370642662048  0.0181560348719 -0.191118896008 0.319997102022  -0.09442232549189999 -0.0766885429621 0.347179293633  -0.10306725651 -0.0245223585516 0.261891931295  -0.0371639840305 -0.192689821124 0.258922994137  -0.08778057992460001 -0.193450272083 0.293951839209  -0.116932563484 -0.137108251452 0.278956532478  -0.0434515699744 -0.19969072938 0.340430229902  -0.016621209681 -0.143479332328 0.208528921008  -0.0799133181572 -0.177766740322 0.206858798862  -0.0340202823281 -0.07231882214550001 0.405357718468  -0.153045728803 -0.0703692808747 0.28540495038  -0.0647673308849 -0.069349065423 -0.297796696424  -0.0468406006694 -0.118580199778 -0.331259429455  -0.0636249184608 -0.122360698879 -0.235275790095  -0.137311711907 -0.115820750594 -0.279358655214  -0.25 -0.25 0.333333333333  -0.00222280388698 -0.0275516584516 -0.327156513929  0.0233143884689 -0.124395690858 -0.330935031176  -0.00544846989214 -0.0444226972759 -0.392852008343  -0.07202984392639999 -0.0450558848679 -0.379192590714  -0.128861442208 -0.0482712239027 -0.325591087341  -0.0319190612757 0.25 0.27473160228  0.0259018652141 0.196524605155 0.343851953745  -0.0424101948738 0.196461260319 0.324036180973  -0.08801463991400001 0.193724930286 0.280150324106  -0.051391992718 0.129726842046 0.244459152222  0.0793330296874 0.131078347564 0.273738384247  0.0304427426308 0.197590425611 0.258007407188  0.139736711979 -0.103549621999 0.308288753033  0.117407329381 -0.00031748006586 0.284001767635  0.17845864594 0.0137020656839 0.2717012465  0.133446916938 -0.07468281686309999 0.252671837807  0.193237304688 0.0103836003691 0.32706490159  0.108656100929 -0.016409387812 0.370573759079  0.195593327284 -0.0705924406648 0.374003827572  0.204297035933 -0.0882691517472 0.283604085445  0.15987212956 -0.0232784096152 0.211559042335  0.103109702468 -0.0715631917119 0.185957938433  0.25 -0.177950121638 0.0405701099774  0.25 -0.111295968676 -0.00354384794953  0.168315500021 -0.181550845504 -0.0129796266556  0.203061833978 -0.0839376300573 0.0201103240252  -0.123973377049 0.0421161539853 0.0831994190812  0.10652089864 0.041568480432 0.133020982146  -0.00508088478819 0.00464248098433 0.118765294552  0.0384838804603 0.0542355030775 0.219570666552  0.0556482039392 0.09942726045850001 0.165778696537  0.25 -0.25 0  0.25 -0.17904445884 -0.0421267671166  0.0085972994566 0.139411628246 0.206887423992  -0.0427397117019 0.0734880268574 0.199836358428  0.25 -0.25 0.166666666667  0.177338154858 -0.25 0.209433902167  0.178222204231 -0.25 0.126578397361  0.180748909712 -0.154124230146 0.180074676871  0.118582360446 0.0498475395143 0.233844980597  0.113276541233 0.115120351315 0.208414897323  0.068451166153 0.123325429857 0.09300038218499999  0.08695217221980001 0.18308262527 0.11987875402  0.1366494596 0.0978636816144 0.125807240605  0.0170362386853 0.165571182966 0.116205818951  -0.075325883925 -0.13042730093 -0.120773427188  -0.191016584635 -0.1764793396 -0.0778442546725  -0.102759346366 -0.20253264904 -0.07015967369080001  -0.126150563359 -0.115044787526 -0.0573479756713  -0.138729035854 -0.104583211243 -0.134180948138  -0.147993162274 -0.138949289918 -0.203295826912  -0.180331096053 -0.192031860352 -0.160557568073  -0.194399222732 -0.0846866071224 -0.148938387632  -0.11259970814 -0.078034222126 -0.193649172783  0.0326924659312 -0.122268341482 0.0296003930271  0.0215157996863 -0.180560961366 -0.0757267251611  0.0956164896488 -0.0493310950696 -0.0164182558656  0.112129375339 -0.112067811191 -0.105549775064  0.127802968025 -0.106147237122 -0.0110959038138  -0.0854129120708 -0.015297700651 0.056893799454  -0.0204317308962 -0.0795602425933 0.117458000779  -0.178222204231 0.25 0.126578397361  -0.177947182503 0.25 0.0435581305687  -0.107976816083 0.25 0.0905854563709  -0.157577678561 0.178241759539 0.0969507619739  0.25 -0.25 0.333333333333  0.25 -0.25 0.25  0.175776260788 -0.25 0.294629825204  0.25 -0.175495340629 0.295351832328  0.0932372882962 -0.0430554822087 0.0724518448114  -0.044769000262 -0.00661279587075 0.403999477625  -0.194478780031 -0.0247275307775 0.332954645157  -0.173761367798 -0.0806607827544 0.396263659  -0.137637495995 0.00523930834606 0.315887242556  0.0864742994308 -0.139340251684 0.176064118743  0.105438224971 -0.136641919613 0.253711819649  0.0308670303835 -0.25 -0.136809572586  0.0367561832589 -0.25 -0.219583441074  0.0925811678171 -0.20055809617 -0.19996842742  0.0127155454829 -0.193433105946 -0.225977659225  0.0415658205748 -0.200880005956 0.196522325277  0.0373581312597 -0.119548290968 0.120048768818  -0.0954102815882 -0.25 0.346414074494  -0.101368582479 -0.25 0.251933327382  -0.0374909392175 -0.25 0.286229296012  0.0852289572358 0.109103307128 -0.27055695653  0.07707493752239999 0.127253636718 -0.199824258685  0.128097131848 0.07648140937090001 -0.209757223725  0.154867321253 0.13628205657 -0.212952241302  0.08678253740069999 0.189277544618 -0.274375885725  0.127699971199 0.0803090333939 -0.326344817877  0.0577741526067 0.0601542405784 -0.31936660409  0.0525139421225 0.129102528095 -0.326874881983  0.0251371748745 0.175572559237 -0.261228203773  0.0199144631624 0.0927290171385 -0.265960127115  -0.148952946067 -0.121583275497 -0.374568909407  -0.25 0.177950121638 0.0405701099774  -0.25 0.111295968676 -0.00354384794953  -0.175531774759 0.135734900832 0.0562076568604  -0.178730383515 0.191659659147 -0.00562386959791  -0.0244714934379 -0.108516678214 -0.387223660946  -0.09279609471560001 -0.170035287738 -0.445968538523  -0.0281062982976 -0.0
[...]
<PointData  Vectors="f_57"> 
<DataArray  type="Float64"  Name="f_57"  NumberOfComponents="3" format="ascii">1.8565815844399250e-03 -2.8707924065282490e-03 -3.5212121561293427e-02  2.2299327694423015e-03 -4.2958125351277706e-03 -3.5992773335782956e-02  3.7306467066366327e-04 1.7313566316218506e-03 -3.1840849561569941e-02  9.0944911118109439e-03 -4.9758893908589527e-03 -4.3346899481879975e-02  8.5732445067776327e-03 -8.3326921421779335e-03 -5.3772344584614357e-02  9.5437486789437653e-03 2.2680872495209141e-03 -3.7917308522020125e-02  -2.8736274912245299e-03 2.1847421719942838e-03 -3.6274208490975464e-02  7.6692203042092845e-03 -1.7136381799874401e-03 -3.8349434545147547e-02  2.4101457546762538e-02 -1.1809502026422647e-02 -5.7670774986298141e-02  9.8112526492463784e-03 -2.2074001316132225e-03 -3.5055854906050246e-02  -2.4997849615686742e-04 1.3666635883167841e-03 -3.6776836975823277e-02  -1.2513030163284805e-03 1.9397367776190768e-03 -3.3803602462773648e-02  -5.4648922797871310e-04 -9.4404159540580263e-04 -3.1308627626720945e-02  -2.6105237935538767e-03 1.6244949500203376e-03 -2.8304515425517100e-02  3.5048230400707412e-04 -3.9382784765396115e-03 -3.5485277422011303e-02  2.3695424699373630e-03 -2.0787060164522324e-03 -3.9366713863757063e-02  -2.6831088466610668e-03 -8.8338641672756522e-04 -2.4027627205068774e-02  -2.2616616814092770e-04 1.1676902483189549e-03 -3.3668845748138297e-02  1.3948082215291474e-03 -2.1281426134893292e-03 -3.8381816218071414e-02  8.6250123420813896e-02 -2.9023890921662514e-02 -5.5555623319194801e-02  4.2404200025598533e-02 -5.2932776391424151e-02 -3.0643299260716340e-02  3.1129242747282241e-02 -1.0248509863015324e-02 -5.9442618642234837e-02  3.9267303060674635e-02 -9.5346371611902802e-03 -4.2223019970296892e-02  6.8788835055021411e-02 -7.0694311716071073e-02 -1.8636923039213982e-02  8.0825988799445261e-02 -4.1087585136103902e-02 8.9153488870198291e-04  4.7150521362416153e-02 -1.4015670107346306e-02 -4.4204387155607677e-02  2.2325781863320621e-01 -1.2516364254865120e-01 -1.0064956699471020e-01  8.9325196418264183e-03 -1.7797563063353929e-02 -4.8429601957485482e-02  -6.0137136023176704e-02 8.5313200755493979e-02 -3.8976824990329610e-02  4.2455063434733691e-03 -2.1958995761773070e-02 -4.8654162841893916e-02  5.8095704143003177e-02 -4.7768785050244199e-03 -3.1381539914336141e-02  5.1224101801191468e-02 -3.0121784542171001e-02 -3.5041100870102974e-02  1.1558939000898903e-03 -4.0729425059953732e-04 -3.6842797084398922e-02  1.3232219822654791e-03 -3.9263225784761449e-03 -3.2367118435925435e-02  1.9587462129734201e-03 6.9424554098873137e-04 -3.3313889919583346e-02  -6.1476177900903525e-04 3.7873332020476914e-03 -3.4493002978574196e-02  3.5302148801275640e-03 -1.3585930912994232e-02 -4.7797951773198455e-02  -2.9727204802590768e-01 3.0837609471382094e-01 -2.6646593762331977e-01  -1.7000633279218375e-01 2.5376241514234227e-01 -1.5754397565549882e-01  -2.0171489678180343e-01 1.1658001037706879e-01 -1.5748220064308494e-01  -1.3572284028758733e-01 1.6480870565768724e-01 -9.2331098849748328e-02  3.2922629933099380e-03 -8.2119396719656504e-04 -3.5860839897060383e-02  -1.2473802309607694e-02 4.9843043193504803e-03 -2.1206685917441993e-02  6.4741391044141391e-03 -3.0862597488749517e-03 -4.2228586048340601e-02  2.2391432880886856e-03 -1.3716995175727666e-03 -3.1296340521018276e-02  2.3385203963050809e-03 4.7979910289610243e-03 -4.0713596395444765e-02  3.7755219092510298e-02 -1.1322134326697361e-02 -1.8055963762147714e-02  2.3535471803757431e-02 -1.8369620024521777e-02 -1.7055030400405604e-03  2.9443789745348642e-02 -2.6514780639520102e-02 1.7453864439335815e-03  2.0648629379001974e-02 -1.5574878329050162e-04 -1.7547053533424416e-02  2.9475464743700552e-02 -2.4016014421033200e-02 2.6196471337441955e-02  2.9635103980073005e-02 -7.4783784966410332e-05 -4.1583919962669053e-02  2.8771674083526867e-02 -3.6345332825037419e-03 -1.5693047019225952e-02  1.6946887292097059e-02 -9.6880824774074094e-03 4.5402067817692125e-03  2.7749687310257419e-02 -9.4780397398394889e-03 -5.3711965599319893e-02  -3.7666394029860494e-04 1.3496726983932565e-03 -2.5930215054350818e-02  -4.0440025312460156e-03 3.3248664444754107e-04 -2.3538308074907831e-02  3.7127815405683944e-03 1.9253660860663129e-03 -2.9156441751925659e-02  5.4010619494969846e-02 -9.3781441993119503e-03 9.5115375902286118e-05  1.9903215239004259e-02 -9.7997037957324169e-04 -3.4425242406184990e-02  3.8197496267466012e-02 -6.3945063137927282e-03 -5.5193793834466293e-02  2.3446925517809650e-02 -1.0719340904119048e-02 -2.6729489458748344e-02  3.3975062211861104e-03 3.0070392008857464e-03 -4.2941511310204981e-02  -2.9091056973972467e-03 -9.3095189341732536e-03 -3.7126090872353537e-02  -6.3014417130351295e-04 7.3512160185422726e-03 2.4308968052032184e-03  -1.6897171863005340e-02 -2.4687979877694309e-03 -6.0941537096058330e-03  8.0582526335292708e-03 -5.0050463478880708e-03 -2.2119808563975482e-02  1.5226319056230037e-03 1.0480101987457966e-02 -1.8708427272779899e-03  -3.6827923426445679e-04 2.7164337586771115e-03 -3.2774893499012747e-02  3.6408352905044584e-03 3.1131711418599019e-03 -3.9600683436036954e-02  -3.7689158902635853e-04 6.1979218083779960e-03 -1.8608857929511209e-04  -4.4117826869863151e-04 7.0522764640597660e-03 2.0614620766402740e-03  3.6997534980446872e-03 2.9136274095574008e-03 -2.5659220940049965e-02  -3.6432435683433732e-02 -2.7282454577457108e-02 3.1834683562695101e-02  -4.4211313840414150e-02 -4.2063920977256336e-02 2.1309405217234727e-02  -4.0232944492362269e-02 -3.4485742035123002e-02 3.7275196586928058e-02  5.1835803590211647e-04 -3.1296513955209743e-02 1.7062040535815962e-02  -3.9572943359288924e-03 6.5027612001689597e-03 -6.3047799951219041e-04  -6.2394198839624045e-03 7.8912999029090991e-03 1.8078440512189174e-03  -5.0379789506228342e-03 5.2527051303591027e-03 -2.7152989146537608e-03  1.1924788453047749e-02 4.8183762124948663e-05 -1.1489699472198561e-02  -5.4108932317654861e-03 -1.7854096846533436e-04 -2.6579014497375632e-02  3.1458774506508158e-03 1.3072698248462918e-03 -3.9239155827047859e-02  2.3477937126189495e-03 2.4119257982517656e-03 -2.9225317657373628e-02  1.0420120519122934e-03 5.6828229224150663e-04 -3.4137888334397730e-02  1.2692450183323012e-03 5.7584290538374033e-04 -2.5479794998840111e-02  6.3486792000099379e-04 -1.4886977086730866e-03 -3.4767393615093158e-02  2.6332658291320760e-03 -7.1491023985539642e-04 -3.0595716048510645e-02  1.4221754846299844e-02 -1.2990099634518618e-02 -4.0415520592551685e-02  -1.2421105564012292e-03 -6.6831833059338860e-04 -1.2322676101402698e-02  9.0627151839746567e-02 2.5627224904775068e-02 1.8448333688155454e-02  1.8015398615814509e-02 -4.1459368878466749e-03 5.4755745472554887e-03  4.8600591237893752e-02 -2.3162281707161175e-03 -2.6432078441221946e-02  7.5532412611715068e-03 -3.2258863068983235e-02 -3.7579000054778343e-02  4.1095217196631943e-02 1.8017107399345582e-02 -3.4604276254125703e-02  -4.2132436388130391e-03 2.2482325743963930e-03 3.1230915851841939e-02  6.9401422290145856e-02 -1.1341637583903160e-02 -9.3704703672946379e-02  6.0258279697519644e-02 1.3245307166084734e-02 -9.3846345237256715e-03  2.1645116614344470e-02 5.0613634986903565e-03 -3.7171691959283201e-02  1.1295784476889783e-02 -3.7036060687792830e-03 -1.6294008853816908e-02  6.2550821330523435e-02 -1.5453609301812986e-02 1.1739698474507631e-02  -1.0862994374396031e-02 -7.0294896922212621e-02 -6.4384336707161340e-03  -4.2917656530767631e-03 -2.9278445756929244e-04 -2.9204327498473480e-02  -2.2858086601407444e-03 1.9326135230728749e-03 -2.6617722201532520e-02  -4.0127854549500590e-03 -3.2765309184105721e-03 -2.5953290524086840e-02  -2.3456206303698502e-03 -7.5806457623876832e-04 -2.3985181263658877e-02  -1.1158671084373992e-01 -1.1130581092031122e-01 6.3448305648262336e-03  -1.3413616423485740e-03 -6.8112735775804336e-04 -3.1046155795852442e-02  -5.0979769138898630e-04 9.6312058415084915e-04 -2.9792490496051635e-02  -7.0222792460112584e-04 1.1806304871660139e-03 -3.4308828510409672e-02  -8.0072294014928223e-04 -3.5409931101812483e-03 -3.2116894300642365e-02  1.7624923454408110e-03 -4.1513490716687432e-05 -2.6430976497095551e-02  -2.6688370499300351e-02 2.2824903124397423e-02 9.2996271996851256e-03  1.0506045745496127e-01 -3.5819399348722594e-02 8.5568104285995285e-04  4.7412240530089363e-02 4.6339544207343458e-03 -1.1514088697061067e-01  -3.0871215822093168e-02 8.0859791531342928e-02 5.5943708509614790e-02  -3.3011905253548919e-02 1.0483757959581862e-02 -9.7681999846751990e-03  1.5407878664053822e-02 -4.5543188451530863e-03 -2.5273066683931686e-02  5.4353949506687560e-03 -6.1617707066684920e-04 -2.3875872113775717e-02  2.2371965724889017e-02 4.6660052605488229e-03 4.9176603235157844e-03  1.3836591159137313e-02 -2.1911404654293355e-02 -1.0872365920021046e-02  9.0697619595471943e-03 -1.7015900793347170e-02 -8.6530565724741281e-03  1.6642152903296466e-02 -9.6173931758112494e-03 -1.7858104224867770e-02  -1.1355133555650211e-02 -1.1429543920734846e-02 -5.0920476418025093e-03  2.7857328388300063e-02 -1.8145697783361468e-02 -1.4799229306127256e-03  5.1565114516523760e-03 1.2213602000784875e-03 1.1040645229817759e-02  7.3941071859228314e-03 -4.3662925984116084e-03 4.4878188473974189e-03  1.9343526042295660e-03 -2.1476779408876458e-03 -2.3759127775929964e-02  1.5400506638875249e-02 -1.6984134161865186e-02 -2.2709054117860956e-02  -1.7609012013910692e-03 -7.7933642815097121e-04 -1.3430596514916306e-03  -1.1413943281289407e-03 -2.1707884625417074e-04 -4.0512363495480872e-03  -1.3362679597397849e-04 7.4413530189724583e-05 -4.5828490827458960e-03  -4.3313636687482586e-03 -8.0074188507695473e-03 -1.4389877787536627e-02  1.3794514441524300e-03 -9.5253083214937775e-03 -3.6751560170772142e-02  3.3891456849946978e-04 -6.8761154160745293e-03 -2.4947420018279577e-02  -2.9356026309737362e-03 1.3085925373121312e-02 -2.9348216315132961e-02  2.1929991575724072e-02 -2.3838222911217257e-02 -4.3014299698182504e-02  1.0901751560744286e-02 -7.9806983656417647e-03 -5.2535936918853096e-02  -1.5277861290935119e-03 -1.0949869872403117e-03 -3.6298083828314120e-03  -1.6002821135724706e-03 -9.7601405595088909e-04 -5.8199865033575640e-03  3.1034669523816734e-02 -4.3749736705922943e-03 -3.8067345046272766e-02  3.5873091761715006e-02 -2.4049291719966427e-02 -5.3943710611333455e-02  -1.6543045861500370e-03 -1.6790256706120000e-03 5.9060579526211930e-03  -2.0804654229229190e-03 -1.7145155619367951e-03 8.6550159646264450e-03  -1.8963732640419114e-03 -1.5357255552133759e-03 3.8030558095031673e-03  -1.3376041004309605e-03 -4.0580677554731192e-03 -1.0903888566115306e-02  1.5237393752623228e-02 1.9306682153294708e-03 -1.6717644278466573e-02  2.4910978545850844e-02 -8.8032872372961551e-04 -3.2678920585877853e-02  -1.0294889052864312e-03 -7.3276901577348239e-03 -3.9766555161725663e-02  1.5720444043460922e-02 5.4939898722491404e-03 -1.2361762673761397e-02  3.0633514791381304e-03 4.4621768187708870e-03 -2.7841630523554615e-02  4.8675066052940022e-03 5.4483445138640424e-03 -2.2960582845309337e-02  -3.2504330288765826e-03 -1.8889205435803798e-03 -2.9065157010962305e-02  6.2990001503614983e-03 2.8818406876950971e-03 -3.0480485942670350e-02  5.2918702026167632e-04 7.9949650282615443e-04 -2.1405362312272212e-02  -4.9993707570063816e-03 -7.1892737068275951e-03 -1.0871651054284429e-02  -2.9542175807101829e-03 -4.7456259880849046e-04 -1.6864301742053955e-02  -3.5676901261114504e-03 -2.8780755208591890e-03 -1.5137736147644174e-02  -1.5415310361832867e-03 4.5705122939050666e-03 -1.8280064908698195e-02  -7.2811015817862207e-03 -6.2834676713272716e-03 -2.0028161550634534e-02  4.2924516894397710e-03 4.7317163889546392e-04 -3.7844705978130402e-02  2.6705264634233447e-03 7.2460275780564091e-04 -3.6522307730324728e-02  -2.8828847874172638e-03 -4.3433871484422426e-03 -2.2103054569585549e-02  6.4616284938220064e-03 -4.3236153400018741e-03 -3.5129165765196438e-02  4.0056840544863883e-03 1.7429441241424237e-03 -2.8114419286918633e-02  2.0390155312623032e-03 -7.1274955477267712e-03 -2.1507273495528226e-02  -2.3905869196727035e-03 -1.4028239745790391e-02 -3.0162980820289439e-02  7.1509672773850726e-03 -1.1701912850860208e-05 -4.0819498447149057e-02  -2.6387704858872867e-02 2.2148703748827884e-02 2.5524084654181496e-02  -1.5571773599216333e-02 1.2925169307457903e-02 1.4899936719291372e-02  -1.8982628349585147e-02 1.5297201338375012e-02 1.5567664385183564e-02  1.2619454880135961e-03 3.6375670459268573e-03 -2.2800020797051193e-02  -1.5027177124168206e-03 -2.6568749821639782e-03 1.7622899044951557e-02  -1.2761601943045619e-03 -2.1069700493911701e-03 1.1851870205144903e-02  -1.8484436012912422e-03 -2.3124074861631629e-03 1.4230156646847908e-02  -1.1270714127634028e-03 -2.0271392640031950e-03 1.5299472424971190e-02  -6.8262507656608362e-04 -1.1675713981823588e-02 -3.3987155538816517e-02  5.1533573165703693e-02 -4.6514815559513485e-02 -2.0728131121934421e-02  1.7216803357871208e-02 -8.3925542302423967e-02 -1.8901859972968196e-02  6.3943066852014480e-02 -5.0455498772089886e-02 -2.6355958936675538e-02  5.6585641182865826e-02 -4.7605172165034799e-02 -6.3507357897551880e-02  1.1833497881902826e-03 -1.0435222824034977e-02 -6.4752047900505424e-03  1.0689386762673328e-02 -8.1435716816057255e-03 -1.4038904450948476e-02  -2.9879505482974396e-03 -5.3066061645880356e-04 -8.6557928103932359e-03  -1.9148837237139317e-03 -8.9326911667844395e-04 -1.1294755582752879e-02  9.9343878078315246e-04 -1.0478225209085050e-03 -2.3386449721901653e-02  -1.0952105175958005e-03 5.8036242038490545e-04 -1.5665537567031609e-02  7.7313207469618603e-03 9.7921709340620055e-05 -1.4855555359281552e-02  1.2578900676707356e-02 -8.0220889439218540e-03 -2.2663412216838676e-02  -3.6310081190425350e-02 -2.6060313978456373e-02 1.7177641346994954e-02  -2.3419785347074305e-02 -1.6408766382680247e-02 1.7320030966248224e-02  -2.0686498796821537e-02 -1.1246294238202737e-02 1.3686628147328911e-02  1.2388424901461168e-03 2.1362156545021312e-03 -2.7523365361481658e-02  -2.5851287542339283e-03 1.7329765315002459e-03 -2.7218399180925387e-02  2.1684823305520673e-03 -1.6081422329025001e-03 -3.5922608080333533e-02  -3.5455080747953715e-04 -8.0245269781247289e-04 -2.1967327346729383e-02  1.6659957182334692e-03 -2.2446500613770340e-03 -2.5507292743658667e-02  -1.6704688820944587e-03 2.5704643028027704e-03 -2.6683599347892707e-02  1.0061958415465757e-04 8.1703136666478997e-04 -3.2897282990756282e-02  1.3692950426971767e-03 -4.7426386024520173e-04 -3.1038723485621485e-02  -2.4898724716945703e-03 1.7740652161229741e-03 -1.8829044639245642e-02  -6.3957667285597676e-04 -8.7411215153559594e-04 -3.4654319559027681e-02  -1.1218761959600012e-03 3.5561419383364247e-04 -2.4490330967719211e-02  -1.3868202169400778e-02 1.4522600544179136e-02 1.5252853445417722e-02  -1.0050453646828940e-02 9.9578538850304543e-03 9.9396708149751562e-03  4.9723934574683369e-03 -1.6855640350805213e-02 -3.7739459907978390e-02  -1.2399418207002064e-02 -4.5158072658554307e-03 -2.5973123026819808e-02  2.8866203596569287e-03 -9.7706636726963459e-04 -3.6775439903369601e-02  -4.0008207528811549e-04 6.1881718070700374e-04 -2.3355163703725357e-02  2.2764368608174448e-03 -1.3498207567545961e-03 -3.3466891035868598e-02  -1.2542320059448038e-02 1.2129999932656956e-02 1.0503126924029009e-02  -8.7462867934960109e-03 9.0259262789790223e-03 5.9854249529905524e-03  -3.6937156320718579e-05 2.5660239340961383e-03 -2.1635070413147179e-02  -3.3458851658419416e-03 -2.6084162528686697e-03 -2.2749381908510492e-02  -3.2323779973060227e-03 1.6342158561544857e-03 -1.6228205401898413e-02  -3.7638997380268959e-03 -1.8832851750671935e-03 -2.3268991104790967e-02  -2.4856815442128241e-03 -7.0158755969734114e-04 -2.7614488122801251e-02  -6.4208223344111679e-04 9.7854813394215686e-05 -1.3039498564248244e-02  -6.5003357477741084e-04 -1.1101549682590658e-04 -1.3942764777796164e-02  -1.7904837473431523e-03 -1.9697103814027926e-04 -1.1846689230132119e-02  -2.3514901166509896e-03 1.6172473107354871e-03 -2.0190216485091166e-02  1.8971742484872065e-03 -3.0923585314471080e-03 -3.7306612277462903e-02  2.3754330218332788e-03 -1.6030490367951052e-03 -3.9480317933079358e-02  1.4639793763533699e-03 4.9529240137732378e-03 -2.8304095027936113e-02  -4.7484175701942302e-05 6.7421779592074333e-04 -2.5753618305645726e-02  5.7013796282191715e-03 -1.2320287666160738e-03 -3.9911738507413433e-02  4.0406475573000842e-03 -3.2858568719235722e-03 -4.1789386852654237e-02  -1.1881673521967234e-02 -2.8353136244629084e-03 7.0798675280839447e-03  -8.2119027463006602e-03 -1.8665918003917404e-03 1.1455665937419529e-03  -8.1076708931741466e-03 3.4714593285080759e-03 -1.7158078112836140e-02  -9.3118595862125737e-03 2.6285762654936653e-03 -1.4242383500118957e-02  -3.4866552146475068e-03 4.5984655275036019e-03 -3.6389349285624310e-02  1.1580943965636386e-03 -7.6123065968092556e-04 -3.1595426120756359e-02  1.7467275438457781e-02 -2.2716008067973768e-02 -4.8819538605103990e-02  -2.7672995431213748e-02 9.1572686798239294e-03 -1.8367806748206556e-02  -3.7236003083700182e-02 -5.1218925325988346e-02 -1.0604103987168123e-01  -2.1797099343923845e-02 3.1505339971694031e-02 -2.5643903149496852e-02  5.5969626887584625e-02 -9.2501567158072048e-02 3.6222692552485058e-02  -8.2598024169838269e-04 -4.5731860371881291e-04 -3.5070104762289243e-02  8.3336651660918836e-04 -8.3078352913713730e-04 -3.0946158876712385e-02  2.3779972882857203e-04 2.7396147980006884e-04 -3.0591483054561105e-02  -7.5020692596607303e-04 6.8758104381690382e-04 -3.2101007536090499e-02  8.6598924539314065e-04 1.5662351623083677e-03 -2.9248621411171266e-02  -4.0721808862490445e-03 3.9113653031983926e-03 -2.7832307187598895e-02  -2.1892053438281909e-06 -1.0582583586166321e-03 -3.5659747056509462e-02  7.5629856473583132e-04 9.1942875929503301e-04 -3.2415609874579157e-02  7.0034529878388772e-04 -7.8242459890095963e-04 -3.1241200281816661e-02  -3.4342285055854310e-04 -1.1574735948640231e-03 -2.2141991176882276e-02  -1.4572904899807116e-04 -3.8329215034480440e-04 -2.6911787940354485e-02  2.9481878622626657e-04 -7.9673279076922069e-04 -2.7226112523290474e-02  -1.5193507875902478e-03 1.3845615543678037e-03 -1.9250365742121703e-02  -1.5430328202026694e-03 7.6196606800866238e-04 -2.0477311961516673e-02  -5.9042636934809780e-04 1.8100334840609795e-04 -2.6621776593405762e-02  -8.4115085294729779e-04 3.5647040576776998e-04 -1.9177126448694945e-02  -4.7735568974247483e-04 2.1180076102963086e-03 -1.9549080126097417e-02  1.8109943270972267e-03 -1.9944452157887173e-03 2.0806119296352666e-02  2.9427334750512491e-03 -5.9529126916971599e-03 1.2369496834874262e-02  4.4936681095562843e-03 3.7016699440195616e-03 1.1945845243028793e-02  1.8855990546268568e-02 -6.7030855799475181e-03 1.4480085582084596e-02  6.1023358013784001e-02 -5.4057781819853754e-02 -2.7489447944327285e-03  9.8387733425315149e-02 -1.9702278008359719e-02 -6.1334745492921207e-02  -4.2744061216140168e-02 3.6142821375731528e-02 4.0969819572779002e-02  -4.3387308222975575e-02 3.8932298132174366e-02 2.6050512795636652e-02  -3.3220744950667014e-02 2.3949494982741699e-02 2.7487431358021518e-02  5.3333209507913718e-02 -3.4203381806755730e-02 -1.2921868922333279e-01  7.7452184546101158e-02 -1.2017752375753841e-02 2.7656829914620047e-02  7.7563867165078251e-02 7.4107822298164951e-03 3.2930467272069969e-02  3.1309739791018587e-02 -6.9073601725782889e-03 9.7659160060105839e-03  1.3873139198278261e-01 4.7482301922032212e-03 -2.6111406027884104e-01  1.2844150208205618e-02 -4.0531347611165079e-02 -1.5893695622719854e-02  1.3100403387284860e-03 -2.4686573885805963e-02 -3.6172884386553805e-02  4.5115015247190193e-03 3.0818410033605949e-02 -6.3204124635712596e-03  2.2904883437511382e-02 6.7648977374996028e-03 5.1199928467836192e-02  -5.3014000568306038e-04 -1.2494951300938054e-04 -1.3872992179938433e-02  -4.0894158722763410e-04 -3.6121720434515635e-05 -1.4582642863589006e-02  -1.4624307670007687e-03 -1.0163080029751213e-04 -2.5079283380861048e-02  -6.8850416136315470e-02 5.7965447585512274e-02 5.675911