<?xml version="1.0"?>
<VTKFile type="UnstructuredGrid"  version="0.1"  >
<UnstructuredGrid>
<Piece  NumberOfPoints="857" NumberOfCells="3763">
<Points>
<DataArray  type="Float64"  NumberOfComponents="3"  format="ascii">-0.0182597916573 0.126128911972 -0.119588643312  -0.0077641364187 0.0512270443141 -0.07050477713349999  -0.0237180162221 0.16240182519 -0.053058128804  -0.107877351344 0.105669431388 -0.0502408407629  -0.0444478429854 0.116080775857 -0.00235075876117  0.0393674038351 0.112876079977 -0.0491501875222  0.0248903874308 0.0489483103156 0.000152088920004  0.0314915925264 0.114928804338 0.0218031276017  -0.0657326281071 0.0685198307037 0.0497140102088  -0.0355357266963 0.164656624198 0.0508319064975  -0.010538729839 -0.0422629192472 -0.208358153701  -0.0239527057856 0.0135364839807 -0.242119863629  -0.0194642152637 -0.0775559768081 -0.263431429863  -0.08492307364939999 -0.0108216870576 -0.280446648598  -0.08293507993220001 -0.0361198186874 -0.159778758883  -0.0240796487778 -0.0824203491211 -0.148982465267  0.0430508553982 -0.121076337993 -0.234084427357  0.0307756774127 0.0324950888753 -0.198437720537  0.00352357281372 -0.00433266581967 -0.144715368748  -0.0456651262939 0.08372022956609999 0.342343091965  -0.116630032659 0.0117083769292 0.386158525944  -0.08223126828669999 0.0577075146139 0.289406776428  -0.0511222109199 0.00205342215486 0.300772219896  -0.0125984866172 0.0267426930368 0.351842552423  0.0303636882454 0.0561947338283 0.391145974398  -0.0524924062192 0.0543583929539 0.40361738205  -0.07944945245979999 0.130002260208 0.441037595272  -0.000730989675503 0.119443200529 0.385622620583  -0.078488714993 0.137875169516 0.332541137934  0.0142801422626 0.110509291291 0.27100610733  0.0224165506661 0.08303219079970001 0.331783413887  -0.0170432701707 0.161798536777 0.30022162199  0.000811119796708 -0.0515509881079 -0.08419398218390001  0.0888616070151 -0.015075173229 -0.0776951387525  -0.0989535748959 -0.0518730916083 -0.08125374466180001  -0.0433920919895 -0.09785594791170001 0.0106235472485  -0.0488061010838 0.0295096840709 -0.0131453983486  -0.25 0.25 0.5  -0.166666666667 0.25 0.5  -0.25 0.195066730511 0.445658150344  -0.19506166517 0.25 0.445542865294  -0.0213422998786 -0.126349791884 -0.045622177422  -0.117952652276 0.0158270020038 -0.16616243124  -0.0531469397247 0.0490713231266 -0.13630309701  0.0358348339796 -0.131537660956 -0.134171053767  0.0583617314696 -0.115307979286 -0.0462360456586  0.010585160926 -0.0606908276677 0.314250290394  0.078067921102 -0.133790805936 0.331458956003  0.0206208750606 -0.104583717883 0.36723652482  0.0300164371729 -0.13569638133 0.270959883928  0.0797956883907 -0.07311873137949999 0.388136893511  0.0291880238801 -0.0850581228733 0.220644980669  0.0788302049041 -0.07555303722620001 0.284453928471  -0.0465739220381 -0.108428947628 0.305151432753  -0.056692365557 -0.0812899768353 0.234353885055  0.10282895714 0.0630551427603 -0.0452189296484  0.178613707423 0.153893724084 -0.0703043565154  0.0750898644328 0.130835875869 -0.116260357201  0.0179002508521 -0.0400723591447 0.396018892527  0.07961820065980001 -0.020668130368 0.232235535979  -0.00726175494492 -0.022667773068 0.242156982422  0.0524490773678 0.0171752162278 0.310696065426  0.0103002395481 0.0813155695796 0.107229083776  0.00225681974553 -0.008687185123560001 0.0457225777209  0.177950121638 0.25 0.0405701099774  0.151375159621 0.202163234353 -0.00268407491967  0.13042794168 0.172564610839 0.0599601529539  0.184557154775 0.16295710206 -0.00737970136106  0.0827306732535 0.011830884032 0.0299163535237  0.106673434377 0.0676268041134 0.0663062110543  0.25 0.25 0  0.25 0.177947182503 0.0435581305687  0.0251978598535 -0.0201241951436 -0.0233656335622  -0.25 -0.25 0.25  -0.175495340629 -0.25 0.295351832328  -0.25 -0.175776260788 0.294629825204  -0.164853364229 -0.189889326692 0.246240898967  0.111295968676 0.25 -0.00354384794953  0.0417815256417 0.25 0.0264120515999  0.0577150444892 0.25 -0.0418173710713  0.035034801811 0.196921139956 -0.0497792549431  -0.115254960954 0.0352221727371 -0.0357825122774  0.0360979661345 0.0743419006467 -0.130612716079  0.08110298216340001 0.0143552683294 -0.135737240314  0.0281950440258 0.110801942647 -0.38559025526  -0.000352636008756 0.154027625918 -0.45018479228  0.0220217909664 0.07910815626379999 -0.445265561342  -0.041934799403 0.09297795593740001 -0.440330862999  -0.115356497467 0.128115877509 0.0303980205208  -0.08144567906859999 0.192924261093 -0.0396481454372  -0.0503155887127 -0.140062868595 0.370642662048  0.0181560348719 -0.191118896008 0.319997102022  -0.09442232549189999 -0.0766885429621 0.347179293633  -0.10306725651 -0.0245223585516 0.261891931295  -0.0371639840305 -0.192689821124 0.258922994137  -0.08778057992460001 -0.193450272083 0.293951839209  -0.116932563484 -0.137108251452 0.278956532478  -0.0434515699744 -0.19969072938 0.340430229902  -0.016621209681 -0.143479332328 0.208528921008  -0.0799133181572 -0.177766740322 0.206858798862  -0.0340202823281 -0.07231882214550001 0.405357718468  -0.153045728803 -0.0703692808747 0.28540495038  -0.0647673308849 -0.069349065423 -0.297796696424  -0.0468406006694 -0.118580199778 -0.331259429455  -0.0636249184608 -0.122360698879 -0.235275790095  -0.137311711907 -0.115820750594 -0.279358655214  -0.25 -0.25 0.333333333333  -0.00222280388698 -0.0275516584516 -0.327156513929  0.0233143884689 -0.124395690858 -0.330935031176  -0.00544846989214 -0.0444226972759 -0.392852008343  -0.07202984392639999 -0.0450558848679 -0.379192590714  -0.128861442208 -0.0482712239027 -0.325591087341  -0.0319190612757 0.25 0.27473160228  0.0259018652141 0.196524605155 0.343851953745  -0.0424101948738 0.196461260319 0.324036180973  -0.08801463991400001 0.193724930286 0.280150324106  -0.051391992718 0.129726842046 0.244459152222  0.0793330296874 0.131078347564 0.273738384247  0.0304427426308 0.197590425611 0.258007407188  0.139736711979 -0.103549621999 0.308288753033  0.117407329381 -0.00031748006586 0.284001767635  0.17845864594 0.0137020656839 0.2717012465  0.133446916938 -0.07468281686309999 0.252671837807  0.193237304688 0.0103836003691 0.32706490159  0.108656100929 -0.016409387812 0.370573759079  0.195593327284 -0.0705924406648 0.374003827572  0.204297035933 -0.0882691517472 0.283604085445  0.15987212956 -0.0232784096152 0.211559042335  0.103109702468 -0.0715631917119 0.185957938433  0.25 -0.177950121638 0.0405701099774  0.25 -0.111295968676 -0.00354384794953  0.168315500021 -0.181550845504 -0.0129796266556  0.203061833978 -0.0839376300573 0.0201103240252  -0.123973377049 0.0421161539853 0.0831994190812  0.10652089864 0.041568480432 0.133020982146  -0.00508088478819 0.00464248098433 0.118765294552  0.0384838804603 0.0542355030775 0.219570666552  0.0556482039392 0.09942726045850001 0.165778696537  0.25 -0.25 0  0.25 -0.17904445884 -0.0421267671166  0.0085972994566 0.139411628246 0.206887423992  -0.0427397117019 0.0734880268574 0.199836358428  0.25 -0.25 0.166666666667  0.177338154858 -0.25 0.209433902167  0.178222204231 -0.25 0.126578397361  0.180748909712 -0.154124230146 0.180074676871  0.118582360446 0.0498475395143 0.233844980597  0.113276541233 0.115120351315 0.208414897323  0.068451166153 0.123325429857 0.09300038218499999  0.08695217221980001 0.18308262527 0.11987875402  0.1366494596 0.0978636816144 0.125807240605  0.0170362386853 0.165571182966 0.116205818951  -0.075325883925 -0.13042730093 -0.120773427188  -0.191016584635 -0.1764793396 -0.0778442546725  -0.102759346366 -0.20253264904 -0.07015967369080001  -0.126150563359 -0.115044787526 -0.0573479756713  -0.138729035854 -0.104583211243 -0.134180948138  -0.147993162274 -0.138949289918 -0.203295826912  -0.180331096053 -0.192031860352 -0.160557568073  -0.194399222732 -0.0846866071224 -0.148938387632  -0.11259970814 -0.078034222126 -0.193649172783  0.0326924659312 -0.122268341482 0.0296003930271  0.0215157996863 -0.180560961366 -0.0757267251611  0.0956164896488 -0.0493310950696 -0.0164182558656  0.112129375339 -0.112067811191 -0.105549775064  0.127802968025 -0.106147237122 -0.0110959038138  -0.0854129120708 -0.015297700651 0.056893799454  -0.0204317308962 -0.0795602425933 0.117458000779  -0.178222204231 0.25 0.126578397361  -0.177947182503 0.25 0.0435581305687  -0.107976816083 0.25 0.0905854563709  -0.157577678561 0.178241759539 0.0969507619739  0.25 -0.25 0.333333333333  0.25 -0.25 0.25  0.175776260788 -0.25 0.294629825204  0.25 -0.175495340629 0.295351832328  0.0932372882962 -0.0430554822087 0.0724518448114  -0.044769000262 -0.00661279587075 0.403999477625  -0.194478780031 -0.0247275307775 0.332954645157  -0.173761367798 -0.0806607827544 0.396263659  -0.137637495995 0.00523930834606 0.315887242556  0.0864742994308 -0.139340251684 0.176064118743  0.105438224971 -0.136641919613 0.253711819649  0.0308670303835 -0.25 -0.136809572586  0.0367561832589 -0.25 -0.219583441074  0.0925811678171 -0.20055809617 -0.19996842742  0.0127155454829 -0.193433105946 -0.225977659225  0.0415658205748 -0.200880005956 0.196522325277  0.0373581312597 -0.119548290968 0.120048768818  -0.0954102815882 -0.25 0.346414074494  -0.101368582479 -0.25 0.251933327382  -0.0374909392175 -0.25 0.286229296012  0.0852289572358 0.109103307128 -0.27055695653  0.07707493752239999 0.127253636718 -0.199824258685  0.128097131848 0.07648140937090001 -0.209757223725  0.154867321253 0.13628205657 -0.212952241302  0.08678253740069999 0.189277544618 -0.274375885725  0.127699971199 0.0803090333939 -0.326344817877  0.0577741526067 0.0601542405784 -0.31936660409  0.0525139421225 0.129102528095 -0.326874881983  0.0251371748745 0.175572559237 -0.261228203773  0.0199144631624 0.0927290171385 -0.265960127115  -0.148952946067 -0.121583275497 -0.374568909407  -0.25 0.177950121638 0.0405701099774  -0.25 0.111295968676 -0.00354384794953  -0.175531774759 0.135734900832 0.0562076568604  -0.178730383515 0.191659659147 -0.00562386959791  -0.0244714934379 -0.108516678214 -0.387223660946  -0.09279609471560001 -0.170035287738 -0.445968538523  -0.0281062982976 -0.0
[...]
<PointData  Vectors="f_78"> 
<DataArray  type="Float64"  Name="f_78"  NumberOfComponents="3" format="ascii">9.3486961057381669e-06 -7.6098983874696043e-07 -4.6019066471478277e-03  -3.4008854190347551e-06 4.7887785452292692e-06 -4.5047560932651070e-03  -9.1872687623414755e-06 -1.5391606199397251e-05 -4.3097035038882998e-03  -1.7807719369752410e-05 5.5363993054539482e-06 -3.9637202882459675e-03  -1.2363090565700073e-05 -4.2351626940328447e-06 -4.6107981095422426e-03  3.1464322282407815e-06 2.6769375548594945e-05 -4.1026588678643961e-03  -4.2959340625954370e-06 8.8960015726005542e-06 -4.5620966289951397e-03  1.0401281900411274e-05 8.9525377121857025e-06 -4.2120155315657198e-03  -8.0502863442010960e-06 -8.8216642902295565e-06 -4.5387820838962752e-03  -1.6566638474299184e-05 3.3042225466574115e-05 -3.7884966450272414e-03  -2.8059817505554452e-06 8.3527011018237177e-06 -4.6147163907471547e-03  -1.6301903820599093e-06 1.6402069195218197e-06 -4.5713110113863075e-03  3.3288725143929128e-06 8.2813560119851567e-06 -4.5056872367095916e-03  -1.5833812304528042e-06 1.0435069041879585e-05 -4.5485207415399218e-03  1.4830412481030940e-05 1.4171577722899107e-05 -4.2900035676386797e-03  5.4004625463372602e-06 2.5166905014169360e-06 -4.4133328184958950e-03  1.2491943856209805e-05 -7.9066830241750286e-06 -4.1342464294927975e-03  2.7485378002260828e-06 4.7251774976711441e-06 -4.5340136039738700e-03  4.8489964257798248e-06 -2.5235629291882361e-06 -4.5313270181872485e-03  3.0148182814873666e-05 -3.5863579176446100e-05 -4.5379499045918167e-03  -1.1862948793288785e-04 4.8102589415939831e-06 -4.8902631727357300e-03  -1.8865231435859362e-05 3.4427765823868833e-05 -4.4342886990591307e-03  -2.6749326566542028e-05 8.9660370388473160e-06 -4.5942322304711675e-03  2.4191161416554557e-05 3.3532484847438717e-05 -4.5857359596506867e-03  4.9385857750963629e-05 3.3179989991122712e-05 -4.8931010128632534e-03  -1.0228524420573376e-05 1.0015068662028405e-04 -4.9874689032243860e-03  6.3620647575613173e-05 1.4323644624191233e-04 -4.1061222792083494e-03  4.1474436517595687e-06 1.0586861882270083e-04 -4.4782081116143246e-03  -6.7910810643653812e-05 8.4476441893265979e-05 -4.4842677560007985e-03  -2.1868534046998371e-05 3.8842182336439972e-05 -4.5514348484925462e-03  1.2407591237914931e-05 4.7929947946464517e-05 -4.3083635228008165e-03  -3.6335823226423597e-05 3.3235570188451849e-05 -4.3506883051739010e-03  -1.8588576333748640e-06 5.4030306561087506e-06 -4.5742201394325561e-03  -1.1963665406818416e-05 2.6304450601491411e-06 -4.3845992387712670e-03  -1.2791414785507970e-05 -2.9995873573786075e-06 -4.4186240389346961e-03  -4.4350791832923904e-06 3.4761993815655330e-06 -4.4483543534835574e-03  -3.0190021744674481e-06 1.1851359795185757e-05 -4.4979331500651564e-03  5.6346523656859454e-06 -4.7605026982929784e-06 2.1602955242721038e-05  4.3076192081717260e-06 -1.0658964145632999e-05 6.3612845951274146e-06  6.5569611762606734e-06 3.6108102817517758e-06 1.1324581878821668e-05  -9.5897844812767964e-07 5.4451422288696395e-07 8.0458065668666642e-06  -1.5651360872327687e-05 2.0063534979199403e-05 -4.1775096760989705e-03  1.4852330730711055e-05 1.7389114055681409e-05 -4.4957075638169669e-03  2.0258913392784066e-06 8.6837585921369351e-06 -4.6462180354721605e-03  -1.0283759982009512e-05 -6.6970303749324984e-06 -4.3489171855718139e-03  1.3369772679470484e-06 -8.7688998835479419e-06 -4.1494493969473859e-03  1.6519968100612430e-05 -8.6409983626778480e-06 -4.5544184023805110e-03  -2.1941765420845404e-05 -2.4430555589723752e-05 -4.3763370992633702e-03  -9.8976193000771475e-05 -5.6214129368701753e-05 -4.7751071387744405e-03  -6.2461629236953707e-06 -5.1069966649936079e-06 -4.1793312324350943e-03  9.6963911886020361e-05 -1.2127137924136104e-04 -4.3950287305824665e-03  3.6288842732430046e-06 -1.1330842787630494e-05 -4.5343658415833510e-03  7.2039028707191718e-06 3.3165985106901045e-06 -4.4095720938023388e-03  -4.2663707422343091e-05 -4.3250483514353428e-05 -4.0177208771244432e-03  -1.3679002471089679e-05 1.3086010117906161e-06 -4.4083946477192267e-03  -1.4906625278937600e-05 1.0589268017360550e-05 -4.3058344409596582e-03  5.1665682584444534e-05 7.9335058893697860e-05 -3.2665943587650015e-03  -1.2118524667416090e-05 8.8517817649847707e-06 -4.0697204634991711e-03  -4.3771427398767411e-05 1.1298959888569591e-05 -4.9872565338683226e-03  -8.4212807270635881e-07 -2.3292477854480420e-06 -4.4828089848421250e-03  -3.7885864657934365e-06 6.0393968682414114e-06 -4.5541476383583893e-03  2.1220776451309637e-05 2.2017633028954674e-05 -4.5088145806947413e-03  2.9423266284035153e-06 6.2700062707908969e-06 -4.4471029000526987e-03  -5.4668711829615145e-06 3.4276070932092123e-06 -4.6258064535451828e-03  -3.7085030267523113e-06 1.4129375381480466e-06 -7.6789233957480708e-08  7.3588926708015678e-05 1.7324602376907987e-05 -3.1139226073668646e-03  -1.3193986881322263e-05 -9.1035691480331244e-05 -3.4168480166462179e-03  -2.0303921538245214e-05 4.7123742782670219e-05 -3.6153138651077873e-03  -8.8544289734105029e-06 1.5808105514823656e-05 -4.5042558169025044e-03  -2.2750692338874633e-05 4.4276512588133456e-06 -4.3460928089576389e-03  -4.0190539596512774e-06 -3.3987494017238829e-06 2.0256197945067956e-07  3.2290812214493244e-06 -6.1094554969003666e-07 -3.5032470733172505e-07  -2.2972156263673081e-06 3.8755053327316627e-06 -4.6570281845315521e-03  -2.4109294051833588e-06 1.0964086110590541e-07 -6.0983403536654374e-06  -8.6768267895377331e-07 1.5409162600393339e-06 2.4159513700713141e-06  3.0482394883855609e-06 1.3105845513261763e-06 2.9921493135278118e-06  -8.8804331439416713e-06 -7.2439947837168103e-05 -2.8425683914965051e-03  -4.1867597308349065e-07 -4.2922778390894379e-07 1.7757135355251520e-06  -9.7496458570490881e-07 -1.3472687106420226e-06 1.9851766085054325e-07  -1.0190898603524531e-06 9.0291360104082282e-07 5.9671606082257346e-07  -2.5789594986241689e-05 1.4801309702718814e-05 -3.5217270918997488e-03  -3.1709582902495942e-05 -7.6624665388400689e-06 -4.2560813611558839e-03  3.1702793802238464e-06 2.6500062155013438e-06 -4.6642431951545073e-03  1.5347708505714991e-05 -3.6333601293010316e-06 -4.3824365232087202e-03  -5.8754996094728626e-06 -1.9003110941665286e-05 -4.2387710763541475e-03  9.3313547285085952e-06 -4.6335539133704703e-05 -3.4708139243133404e-03  9.6048212160509853e-06 -4.9051442743300304e-06 -4.4661528167202489e-03  8.9877711591874397e-06 -4.6743606124668959e-05 -4.4240083208482812e-03  -2.2131248268926483e-05 -3.7135608193415649e-05 -4.3218777733121895e-03  -3.5544743306729864e-05 -2.1357381256663212e-05 -3.1768930218581612e-03  7.1236470881657661e-05 -9.7774091579867634e-05 -4.2778711143806785e-03  -2.2357610393932694e-05 1.7662983009676688e-05 -3.7953432217440785e-03  -6.9138293833195799e-05 -1.0287212554063024e-05 -4.2502189468950433e-03  -1.1816511120201520e-05 -1.3341645387580695e-05 -4.4160339943225988e-03  -2.5710290969432724e-05 3.4592416080816662e-05 -3.7546238784643892e-03  -4.5349804653909091e-05 -1.3241079757101166e-04 -3.5686519132403119e-03  -2.5587186780885413e-05 -2.4351311193525014e-05 -4.0793159462593478e-03  6.4767608204141874e-05 -5.7849613819286175e-06 -3.4551266668387537e-03  1.2228670813451250e-05 3.9255779914873180e-06 -4.3350638019282088e-03  -6.3633881554009514e-07 5.5718701486308132e-05 -3.6692460998807670e-03  -9.5613585445446198e-05 3.2116152098629307e-05 -4.5993082225694246e-03  6.3433590493986689e-06 6.9475483301172664e-06 -3.1480707359966085e-03  1.8449221761761138e-05 8.9781600357595360e-06 -4.4007088933686617e-03  1.2568647345139362e-05 9.3043147508658290e-06 -4.3945007947637678e-03  4.7758244335731102e-06 -5.9174041596635256e-06 -4.0321579548914218e-03  -4.6308668548873249e-06 9.7941658440152343e-06 -3.7586127194865070e-03  6.9514593497890009e-07 6.7339774826845869e-07 1.3660652242807918e-06  1.0550040180862847e-05 7.1210777644378776e-06 -4.5050935136943422e-03  2.1656399798129542e-06 1.4228997472163394e-05 -4.5910577394845309e-03  5.8815469608369579e-06 2.2146116626345775e-05 -4.5020211749104908e-03  1.2716620910455853e-05 2.1229973837390007e-05 -4.3821442125112327e-03  1.3690614116955383e-05 2.7029206385390985e-06 -3.4781606356428484e-03  1.1306458616388103e-06 1.6961157985183815e-06 2.0943036375267431e-07  4.3764250090015621e-05 7.3138221586481779e-05 -3.9170401682203509e-03  -1.4378116825837790e-04 4.4892622094566022e-05 -3.1525131687028902e-03  1.2814432033021023e-04 -8.0977965033431402e-05 -3.6092398361660463e-03  -8.6413463939305654e-06 3.0782307481364383e-05 -4.5766970245087781e-03  -1.5563297721245813e-05 8.0883628332093286e-06 -3.8757354668270396e-03  1.5946160980567024e-05 -6.1184055137066275e-05 -4.1728129627174974e-03  2.6432618432504229e-05 -5.7600170881392303e-06 -4.2764655069814431e-03  1.8325134803792874e-06 3.3908531631476737e-05 -4.4323475759732904e-03  1.1637512911273174e-05 -1.9082156857108365e-05 -3.1487919162926847e-03  -2.8154159980512272e-05 3.2426889821309178e-06 -3.6350823864808673e-03  -3.9752504829436678e-05 1.6813962550694982e-06 -3.4494553874637401e-03  7.3371320358157373e-05 3.1206337869524336e-05 -4.7276384243982641e-03  8.4241594119194483e-05 4.4389201577478042e-05 -3.8186716581121985e-03  1.5498432054406628e-06 3.0040585204438267e-05 -4.1391450814280816e-03  -4.5304463400299597e-05 1.0019396557078470e-05 -4.1269299740009239e-03  -1.5227352442391401e-05 -1.2068634702241624e-05 -3.8403583397241007e-03  6.0075135443296928e-06 -8.5013951525647353e-07 -4.0642753635294685e-07  -1.7537169434552976e-06 -2.5352587379925738e-06 1.0177541480710334e-06  -1.3330230760603748e-04 8.5428645090798673e-05 -3.9241065201391472e-03  6.8646969236513592e-05 -6.3488946426039047e-05 -3.0270468072472394e-03  2.1545184051386597e-05 1.5806219953708985e-05 -4.3863094867830337e-03  4.7374647556406391e-06 7.3658074072028171e-06 -4.2495054400184919e-03  -2.5415166760845026e-06 4.2822448031433021e-06 -4.5545264684108567e-03  -2.7811462531518869e-06 1.5051578880906427e-05 -4.5732036970151518e-03  1.1990886762239302e-05 -8.8347658080481455e-06 -4.4067965306947565e-03  -4.7936788154198288e-06 2.8744481935657890e-06 1.4568060473145408e-06  2.7657863905656641e-06 7.4644752252436705e-07 -8.0297640129976149e-07  -2.5840618931794251e-05 1.0959415283540977e-05 -3.8589620011042951e-03  8.1744664963481151e-07 2.3942660385524540e-05 -4.3988603000134274e-03  1.5219761645792199e-06 4.6628614955810978e-07 2.0623001562561354e-06  9.5905876120758371e-07 -5.1923599559402626e-06 9.0319860421161234e-07  -9.0411629303668910e-07 -1.6815726876837128e-06 4.2284552494979327e-08  -1.5650587474937811e-05 1.9315386102756192e-05 -3.7599150401593246e-03  9.2610972976116111e-06 1.7844925518787844e-05 -4.2657582710175553e-03  9.2106609476098786e-06 -6.1978170178681448e-06 -3.8648744092156270e-03  -1.3423168623111278e-05 1.1026373989209809e-05 -4.4185418873933366e-03  -1.6803488056208437e-06 -3.1800526106014765e-05 -3.8631719219081396e-03  -1.2450099943286719e-05 -4.5126490213436170e-05 -3.3480424843195782e-03  4.9005770709972678e-05 -4.3623954693752749e-06 -3.4012505638600127e-03  -3.1515142260973092e-06 2.0590615567690412e-05 -4.0885079623701548e-03  -1.0272985091502879e-04 -8.4533372397966548e-05 -3.7158926300434247e-03  3.3752204880671163e-05 -4.3437884717942798e-05 -3.0526367712911335e-03  -2.3012689334231799e-05 -1.9655544136279394e-05 -3.8354949739050786e-03  2.9070159813232825e-06 2.9127166675565494e-05 -3.3840447830165705e-03  2.9192504395454912e-05 -1.0318072975966404e-05 -3.7270279171648111e-03  1.4257900318806445e-05 -5.7499892940448397e-06 -3.2254009278146730e-03  4.1422943677448654e-05 3.4526824076326093e-05 -4.0171584819732572e-03  2.5939140075704603e-05 -3.8049588431288056e-06 -4.1813542460601583e-03  -9.5272336289925122e-06 -8.6939245516540853e-06 -4.3281581245436639e-03  -2.2730135589600604e-05 2.4112443362985060e-05 -2.9761282708333095e-03  1.3721752589304296e-05 -6.7273141552527993e-06 -4.2092637709620863e-03  1.7982530511156973e-06 -1.4418144126573679e-05 -3.9833548449644826e-03  -2.2479167075615619e-06 6.4102487680958459e-06 -4.2420781568220023e-03  1.1088050513047854e-05 -6.0403835143766797e-06 -4.4872381208299634e-03  -6.5243303642717722e-06 2.5764734664948849e-07 -4.5854654843272263e-03  -2.0095418823377342e-07 2.5816391056766902e-06 -1.2144687939894935e-06  7.8338573648756309e-07 6.0227370473940190e-07 -2.1079900592809990e-07  1.7613818036773218e-06 -5.1371520392131659e-06 8.2682482631510189e-07  2.8279393675890742e-07 1.9773553250780900e-05 -3.2726655439674034e-03  -3.7062634355384213e-07 9.4297602254569278e-07 -3.4823072778502032e-07  -5.5391315051552640e-06 2.3303063722516630e-06 -1.5067685031306331e-06  -5.9851747284579896e-07 -3.3254239881027643e-06 8.9848169781552147e-07  3.0239698483926630e-06 -1.3297091597126031e-08 -9.9103894264277978e-07  -1.2923111293139260e-05 1.2116916785300289e-05 -4.3121674401981249e-03  2.7687177150677163e-06 1.2020848631472571e-05 -4.9245744669768393e-03  3.6959026003012106e-06 -1.0113368810443550e-04 -2.9636207398038550e-03  -1.1753583322156300e-04 -4.0844314759918654e-05 -4.1662759241678001e-03  2.5776676145943568e-05 -1.6759249375456703e-05 -3.8216857087867888e-03  2.3049299697441555e-05 2.3117301533337201e-05 -3.4245739924941257e-03  7.2258036176582037e-07 -3.4461607526074621e-05 -4.1463000012956002e-03  4.0785997041579816e-09 -3.6741041749684540e-07 5.1114555992653298e-07  1.8662991927997953e-06 6.4526737994400806e-06 9.2458948736812633e-07  1.0912044706746483e-04 -8.5036075965593818e-05 -3.5274632484152343e-03  -4.0322970378296256e-05 4.5317771537724822e-05 -2.0135526054152531e-03  -8.7701350306661587e-06 -1.3630938417864383e-05 -4.1078874544993515e-03  -9.8395841715858898e-07 2.3477711096938988e-05 -4.2129324786012419e-03  8.6300430941364007e-07 6.9411087496991992e-06 3.4841778371503276e-06  -1.0864611946856845e-06 -1.8815024167332993e-06 2.3841667600301638e-06  -2.7285783379352642e-06 -3.9263143862162673e-06 -1.6398877506319295e-07  1.9654441123366610e-05 -3.6243598669571729e-06 -4.2286397707703947e-03  2.4319136838450754e-08 -1.8836494064843342e-05 -4.2594456569565644e-03  1.2181386445881947e-05 1.4374415929318490e-07 -4.1183646927612392e-03  2.4807171575200155e-05 1.6502259899703137e-05 -3.6511326615613826e-03  1.6111046434229693e-05 -2.6272622491699521e-06 -3.5516735576530153e-03  5.8253881328501389e-07 2.3053930539410698e-06 -4.5759935084395808e-03  3.3458072066344077e-06 -2.9623329350236112e-06 -4.4890344464344738e-03  -8.1493936596328008e-06 -9.5561353516928423e-06 -3.8160798286050149e-03  -2.7989109215701325e-05 -1.4878668435567316e-05 -3.9600877203680752e-03  -4.6637628630646981e-07 5.1342015514107001e-06 -4.5619513958694031e-03  2.0472955534076929e-05 -3.8633675360822301e-05 -3.8711673317094620e-03  -9.0860915606563525e-07 -2.7676991473135455e-06 1.3021820786457793e-07  -3.4941940546803375e-06 -1.0705932195505856e-06 6.0659480839779923e-07  1.0058949036369532e-04 -1.0190743503729171e-04 -3.3806996274291716e-03  -9.4103244212669039e-05 1.1186784067208407e-05 -3.3891767978078435e-03  3.3110963151856722e-07 5.5774763378084058e-05 -4.0302391064003396e-03  -4.3557031740180079e-07 5.6426129174371867e-05 -4.0613983183491204e-03  9.9811939919722729e-06 3.6968961383085570e-05 -4.4981132686294717e-03  8.6419072343358848e-07 -4.4405159337687427e-06 -1.9133102730665004e-06  -4.2417592540770118e-06 -2.8743109572530370e-07 2.6983989240714838e-06  -3.4429462864546052e-06 -4.1957498254735964e-05 -4.3768103856924303e-03  3.8915890235928739e-05 -7.6567399120639559e-07 -3.2526340797430094e-03  -7.7575086793887454e-06 -2.0922828199205082e-05 -3.1128563944504599e-03  -1.9484207825215924e-05 4.0195300975028155e-05 -4.1618013979771544e-03  5.0991002773211187e-06 4.3089344299796417e-06 -4.5271726614968272e-03  2.1218523095107910e-06 -1.2965911538271347e-07 -6.0682562765278152e-06  2.0119945454941400e-07 7.2232037767483937e-07 -3.3623870675669179e-06  -2.0406884641465709e-07 -2.5328262386807180e-07 3.3875978989336081e-07  1.9372975942435482e-05 1.4280003564372519e-05 -3.8082797621450584e-03  7.4589142500107638e-06 4.1037278701394105e-06 -4.4206254496167397e-03  4.0798463467070680e-06 6.6550887506603969e-06 -4.5420589820299867e-03  3.9992922849187591e-07 3.4514103069718860e-06 -3.8537394009627384e-03  1.3128008370890766e-05 5.2267420092854879e-06 -4.4797509431647982e-03  -1.1140133851951533e-05 -7.7951781084997055e-06 -4.4926858076492129e-03  3.7552145727457464e-06 1.8312762466002096e-06 -4.2719160415041878e-03  1.1912139664994898e-06 -3.4515470104692638e-06 -5.5025568710090622e-07  -1.9487336689543747e-06 1.5311954500852558e-06 5.8592430522736264e-07  -4.8602639353738056e-05 -1.8634730809307484e-05 -3.6256137373354056e-03  4.3710573351100011e-06 2.1089849381844757e-05 -3.3264721213915084e-03  3.9159430572513498e-05 -1.9119693917120614e-05 -4.1200059152738484e-03  1.8379306555005740e-05 -7.6288157882384345e-06 -4.2485210889092202e-03  -1.4370996680438015e-05 -4.8617888931742457e-06 -4.4493121981964432e-03  -4.2665943381585243e-06 -1.1725746952986147e-05 -3.8434309708851940e-03  -9.0787961288336597e-06 1.2818411940816680e-05 -3.9309670522262013e-03  -3.0799070084012393e-05 3.1843573161506707e-05 -3.6172479348225732e-03  -6.9710057906287494e-05 4.4288239448597005e-05 -3.9760256432556998e-03  2.1234346460728457e-05 2.0599284520509679e-06 -4.5121310440259452e-03  5.1502431747375436e-05 2.4595235302071556e-05 -4.6740081905559342e-03  2.8251392001431425e-05 4.2170261589668058e-06 -4.1155801171660206e-03  1.0170802039291797e-06 2.8093268131432203e-06 -4.4884656448153796e-03  3.0358337027225775e-05 -1.8176494146300115e-05 -4.4872108342764623e-03  1.4449477525799495e-05 -2.6306899670895496e-05 -4.5130545705963036e-03  7.3346302972977856e-06 -5.8781865096407084e-06 -4.5384133210195562e-03  1.9501050798156739e-05 1.0755548903378823e-05 -3.8885576324644206e-03  -7.8032928852193915e-06 1.1059349405953520e-05 -4.0329848186803968e-03  2.2862221313479382e-05 -1.4474153491631103e-05 -2.7109918215948423e-03  1.1359039054874231e-07 -3.9299841950698591e-06 -3.7973955725471419e-03  -4.4960158512358375e-06 -2.7459746976013652e-05 -4.4256594926723389e-03  -4.6732821178297113e-05 -6.1286706894292460e-05 -4.2554290350966251e-03  1.6260455501819630e-06 4.6002121440540869e-05 -4.2175114873595817e-03  -4.0219496774572192e-05 9.2141586624198353e-06 -3.3402984362391973e-03  -3.5369559362656935e-06 -1.9339710016358217e-05 -4.3499219981724836e-03  -2.1047979176464259e-05 -3.8425466331920642e-05 -2.9173357174890717e-03  9.6320250842085763e-05 2.3810581705286364e-05 -3.3651005824036550e-03  -2.6144375983668613e-05 3.0278741161126115e-05 -3.1604346093933025e-03  4.1215522985376398e-05 -1.0831050847748532e-04 -4.4333074296366067e-03  3.8485797490039211e-05 1.8883573815108553e-05 -4.0552068869887728e-03  -2.3183476361526850e-04 -3.5745581954930606e-05 -4.1237870625106940e-03  -1.1907730095296455e-04 8.7012355873961152e-06 -3.8848721604658378e-03  1.6644549166249647e-06 4.6923931309250748e-06 6.3311079977238089e-07  -9.2051583633311357e-07 -1.0904006357908967e-05 -4.4148416635755969e-07  -3.5391616554298144e-06 5.2882048127932096e-06 1.2220741104507016e-07  1.4248115835480803e-05 -2.6010063604503341e-05 -3.6716924819730472e-03  -7.3140614721472092e-06 -7.0072692870511903e-05 -4.3038183198148006e-03  6.0685317662057789e-06 2.3731068466170608e-06 -4.1279820685602197e-03  -8.0204898134561697e-05 -6.4588424658104863e-05 -4.1094965813582938e-03  -2.7468123745787911e-05 5.7102421016455148e-05 -3.7644203635927688e-03  9.6740622694061867e-06 1.0119082256806065e-05 -4.4217094450958146e-03  9.0634805344801141e-05 4.2714284413907076e-05 -4.3146165027296238e-03  3.6713753406036388e-04 -1.9315182023724283e-05 -3.1903054904285875e-03  -6.5552876770860994e-07 3.7179892010064700e-06 -3.7593432812522533e-03  1.8528422921271807e-06 4.0196514336069179e-06 -5.4144638716592808e-06  -4.0965168204029048e-07 3.5211307112702833e-06 -4.7937501803520242e-06  7.2172568369256334e-06 1.1469568691897831e-04 -4.1515579998233944e-03  2.3215202678563690e-06 7.9599044429186812e-07 -5.0020344807719700e-06  -9