<?xml version="1.0"?>
<VTKFile type="UnstructuredGrid"  version="0.1"  >
<UnstructuredGrid>
<Piece  NumberOfPoints="857" NumberOfCells="3763">
<Points>
<DataArray  type="Float64"  NumberOfComponents="3"  format="ascii">-0.0182597916573 0.126128911972 -0.119588643312  -0.0077641364187 0.0512270443141 -0.07050477713349999  -0.0237180162221 0.16240182519 -0.053058128804  -0.107877351344 0.105669431388 -0.0502408407629  -0.0444478429854 0.116080775857 -0.00235075876117  0.0393674038351 0.112876079977 -0.0491501875222  0.0248903874308 0.0489483103156 0.000152088920004  0.0314915925264 0.114928804338 0.0218031276017  -0.0657326281071 0.0685198307037 0.0497140102088  -0.0355357266963 0.164656624198 0.0508319064975  -0.010538729839 -0.0422629192472 -0.208358153701  -0.0239527057856 0.0135364839807 -0.242119863629  -0.0194642152637 -0.0775559768081 -0.263431429863  -0.08492307364939999 -0.0108216870576 -0.280446648598  -0.08293507993220001 -0.0361198186874 -0.159778758883  -0.0240796487778 -0.0824203491211 -0.148982465267  0.0430508553982 -0.121076337993 -0.234084427357  0.0307756774127 0.0324950888753 -0.198437720537  0.00352357281372 -0.00433266581967 -0.144715368748  -0.0456651262939 0.08372022956609999 0.342343091965  -0.116630032659 0.0117083769292 0.386158525944  -0.08223126828669999 0.0577075146139 0.289406776428  -0.0511222109199 0.00205342215486 0.300772219896  -0.0125984866172 0.0267426930368 0.351842552423  0.0303636882454 0.0561947338283 0.391145974398  -0.0524924062192 0.0543583929539 0.40361738205  -0.07944945245979999 0.130002260208 0.441037595272  -0.000730989675503 0.119443200529 0.385622620583  -0.078488714993 0.137875169516 0.332541137934  0.0142801422626 0.110509291291 0.27100610733  0.0224165506661 0.08303219079970001 0.331783413887  -0.0170432701707 0.161798536777 0.30022162199  0.000811119796708 -0.0515509881079 -0.08419398218390001  0.0888616070151 -0.015075173229 -0.0776951387525  -0.0989535748959 -0.0518730916083 -0.08125374466180001  -0.0433920919895 -0.09785594791170001 0.0106235472485  -0.0488061010838 0.0295096840709 -0.0131453983486  -0.25 0.25 0.5  -0.166666666667 0.25 0.5  -0.25 0.195066730511 0.445658150344  -0.19506166517 0.25 0.445542865294  -0.0213422998786 -0.126349791884 -0.045622177422  -0.117952652276 0.0158270020038 -0.16616243124  -0.0531469397247 0.0490713231266 -0.13630309701  0.0358348339796 -0.131537660956 -0.134171053767  0.0583617314696 -0.115307979286 -0.0462360456586  0.010585160926 -0.0606908276677 0.314250290394  0.078067921102 -0.133790805936 0.331458956003  0.0206208750606 -0.104583717883 0.36723652482  0.0300164371729 -0.13569638133 0.270959883928  0.0797956883907 -0.07311873137949999 0.388136893511  0.0291880238801 -0.0850581228733 0.220644980669  0.0788302049041 -0.07555303722620001 0.284453928471  -0.0465739220381 -0.108428947628 0.305151432753  -0.056692365557 -0.0812899768353 0.234353885055  0.10282895714 0.0630551427603 -0.0452189296484  0.178613707423 0.153893724084 -0.0703043565154  0.0750898644328 0.130835875869 -0.116260357201  0.0179002508521 -0.0400723591447 0.396018892527  0.07961820065980001 -0.020668130368 0.232235535979  -0.00726175494492 -0.022667773068 0.242156982422  0.0524490773678 0.0171752162278 0.310696065426  0.0103002395481 0.0813155695796 0.107229083776  0.00225681974553 -0.008687185123560001 0.0457225777209  0.177950121638 0.25 0.0405701099774  0.151375159621 0.202163234353 -0.00268407491967  0.13042794168 0.172564610839 0.0599601529539  0.184557154775 0.16295710206 -0.00737970136106  0.0827306732535 0.011830884032 0.0299163535237  0.106673434377 0.0676268041134 0.0663062110543  0.25 0.25 0  0.25 0.177947182503 0.0435581305687  0.0251978598535 -0.0201241951436 -0.0233656335622  -0.25 -0.25 0.25  -0.175495340629 -0.25 0.295351832328  -0.25 -0.175776260788 0.294629825204  -0.164853364229 -0.189889326692 0.246240898967  0.111295968676 0.25 -0.00354384794953  0.0417815256417 0.25 0.0264120515999  0.0577150444892 0.25 -0.0418173710713  0.035034801811 0.196921139956 -0.0497792549431  -0.115254960954 0.0352221727371 -0.0357825122774  0.0360979661345 0.0743419006467 -0.130612716079  0.08110298216340001 0.0143552683294 -0.135737240314  0.0281950440258 0.110801942647 -0.38559025526  -0.000352636008756 0.154027625918 -0.45018479228  0.0220217909664 0.07910815626379999 -0.445265561342  -0.041934799403 0.09297795593740001 -0.440330862999  -0.115356497467 0.128115877509 0.0303980205208  -0.08144567906859999 0.192924261093 -0.0396481454372  -0.0503155887127 -0.140062868595 0.370642662048  0.0181560348719 -0.191118896008 0.319997102022  -0.09442232549189999 -0.0766885429621 0.347179293633  -0.10306725651 -0.0245223585516 0.261891931295  -0.0371639840305 -0.192689821124 0.258922994137  -0.08778057992460001 -0.193450272083 0.293951839209  -0.116932563484 -0.137108251452 0.278956532478  -0.0434515699744 -0.19969072938 0.340430229902  -0.016621209681 -0.143479332328 0.208528921008  -0.0799133181572 -0.177766740322 0.206858798862  -0.0340202823281 -0.07231882214550001 0.405357718468  -0.153045728803 -0.0703692808747 0.28540495038  -0.0647673308849 -0.069349065423 -0.297796696424  -0.0468406006694 -0.118580199778 -0.331259429455  -0.0636249184608 -0.122360698879 -0.235275790095  -0.137311711907 -0.115820750594 -0.279358655214  -0.25 -0.25 0.333333333333  -0.00222280388698 -0.0275516584516 -0.327156513929  0.0233143884689 -0.124395690858 -0.330935031176  -0.00544846989214 -0.0444226972759 -0.392852008343  -0.07202984392639999 -0.0450558848679 -0.379192590714  -0.128861442208 -0.0482712239027 -0.325591087341  -0.0319190612757 0.25 0.27473160228  0.0259018652141 0.196524605155 0.343851953745  -0.0424101948738 0.196461260319 0.324036180973  -0.08801463991400001 0.193724930286 0.280150324106  -0.051391992718 0.129726842046 0.244459152222  0.0793330296874 0.131078347564 0.273738384247  0.0304427426308 0.197590425611 0.258007407188  0.139736711979 -0.103549621999 0.308288753033  0.117407329381 -0.00031748006586 0.284001767635  0.17845864594 0.0137020656839 0.2717012465  0.133446916938 -0.07468281686309999 0.252671837807  0.193237304688 0.0103836003691 0.32706490159  0.108656100929 -0.016409387812 0.370573759079  0.195593327284 -0.0705924406648 0.374003827572  0.204297035933 -0.0882691517472 0.283604085445  0.15987212956 -0.0232784096152 0.211559042335  0.103109702468 -0.0715631917119 0.185957938433  0.25 -0.177950121638 0.0405701099774  0.25 -0.111295968676 -0.00354384794953  0.168315500021 -0.181550845504 -0.0129796266556  0.203061833978 -0.0839376300573 0.0201103240252  -0.123973377049 0.0421161539853 0.0831994190812  0.10652089864 0.041568480432 0.133020982146  -0.00508088478819 0.00464248098433 0.118765294552  0.0384838804603 0.0542355030775 0.219570666552  0.0556482039392 0.09942726045850001 0.165778696537  0.25 -0.25 0  0.25 -0.17904445884 -0.0421267671166  0.0085972994566 0.139411628246 0.206887423992  -0.0427397117019 0.0734880268574 0.199836358428  0.25 -0.25 0.166666666667  0.177338154858 -0.25 0.209433902167  0.178222204231 -0.25 0.126578397361  0.180748909712 -0.154124230146 0.180074676871  0.118582360446 0.0498475395143 0.233844980597  0.113276541233 0.115120351315 0.208414897323  0.068451166153 0.123325429857 0.09300038218499999  0.08695217221980001 0.18308262527 0.11987875402  0.1366494596 0.0978636816144 0.125807240605  0.0170362386853 0.165571182966 0.116205818951  -0.075325883925 -0.13042730093 -0.120773427188  -0.191016584635 -0.1764793396 -0.0778442546725  -0.102759346366 -0.20253264904 -0.07015967369080001  -0.126150563359 -0.115044787526 -0.0573479756713  -0.138729035854 -0.104583211243 -0.134180948138  -0.147993162274 -0.138949289918 -0.203295826912  -0.180331096053 -0.192031860352 -0.160557568073  -0.194399222732 -0.0846866071224 -0.148938387632  -0.11259970814 -0.078034222126 -0.193649172783  0.0326924659312 -0.122268341482 0.0296003930271  0.0215157996863 -0.180560961366 -0.0757267251611  0.0956164896488 -0.0493310950696 -0.0164182558656  0.112129375339 -0.112067811191 -0.105549775064  0.127802968025 -0.106147237122 -0.0110959038138  -0.0854129120708 -0.015297700651 0.056893799454  -0.0204317308962 -0.0795602425933 0.117458000779  -0.178222204231 0.25 0.126578397361  -0.177947182503 0.25 0.0435581305687  -0.107976816083 0.25 0.0905854563709  -0.157577678561 0.178241759539 0.0969507619739  0.25 -0.25 0.333333333333  0.25 -0.25 0.25  0.175776260788 -0.25 0.294629825204  0.25 -0.175495340629 0.295351832328  0.0932372882962 -0.0430554822087 0.0724518448114  -0.044769000262 -0.00661279587075 0.403999477625  -0.194478780031 -0.0247275307775 0.332954645157  -0.173761367798 -0.0806607827544 0.396263659  -0.137637495995 0.00523930834606 0.315887242556  0.0864742994308 -0.139340251684 0.176064118743  0.105438224971 -0.136641919613 0.253711819649  0.0308670303835 -0.25 -0.136809572586  0.0367561832589 -0.25 -0.219583441074  0.0925811678171 -0.20055809617 -0.19996842742  0.0127155454829 -0.193433105946 -0.225977659225  0.0415658205748 -0.200880005956 0.196522325277  0.0373581312597 -0.119548290968 0.120048768818  -0.0954102815882 -0.25 0.346414074494  -0.101368582479 -0.25 0.251933327382  -0.0374909392175 -0.25 0.286229296012  0.0852289572358 0.109103307128 -0.27055695653  0.07707493752239999 0.127253636718 -0.199824258685  0.128097131848 0.07648140937090001 -0.209757223725  0.154867321253 0.13628205657 -0.212952241302  0.08678253740069999 0.189277544618 -0.274375885725  0.127699971199 0.0803090333939 -0.326344817877  0.0577741526067 0.0601542405784 -0.31936660409  0.0525139421225 0.129102528095 -0.326874881983  0.0251371748745 0.175572559237 -0.261228203773  0.0199144631624 0.0927290171385 -0.265960127115  -0.148952946067 -0.121583275497 -0.374568909407  -0.25 0.177950121638 0.0405701099774  -0.25 0.111295968676 -0.00354384794953  -0.175531774759 0.135734900832 0.0562076568604  -0.178730383515 0.191659659147 -0.00562386959791  -0.0244714934379 -0.108516678214 -0.387223660946  -0.09279609471560001 -0.170035287738 -0.445968538523  -0.0281062982976 -0.0
[...]
<PointData  Vectors="f_68"> 
<DataArray  type="Float64"  Name="f_68"  NumberOfComponents="3" format="ascii">3.4178700265982818e-05 5.2053119485804154e-06 -1.9554436933605493e-02  -1.9349769847518149e-05 3.2118678228776790e-05 -1.9284912600915013e-02  -3.0632057581761754e-05 -5.3702419262155980e-05 -1.8433198806601613e-02  -7.0893269494591113e-05 3.3469843039974101e-05 -1.7123935063880460e-02  -5.6907125044930515e-05 -8.3850944457664262e-07 -1.9551745627821446e-02  3.9439042677328537e-06 1.1095815067761714e-04 -1.7781186288031110e-02  -2.4526549501330403e-05 5.3267413771593313e-05 -1.9495593904157241e-02  2.5145661796594563e-05 4.8738114736679989e-05 -1.8077104061386420e-02  -3.6121907642340574e-05 -1.6316421854275742e-05 -1.9371574179513858e-02  -6.9455302404393049e-05 1.2823798912328806e-04 -1.6137622816869084e-02  -1.7227117423657142e-05 4.0000768619948751e-05 -1.9702050999864284e-02  -1.1047627163910616e-05 1.0561387247659442e-05 -1.9539680857455964e-02  8.7013943366933261e-06 3.6691008199909730e-05 -1.9283264009154890e-02  -8.0879888436520762e-06 4.6007814628816032e-05 -1.9430574031938652e-02  4.7728536737812088e-05 6.1640916053616398e-05 -1.8578150726595338e-02  9.8864017914713909e-06 1.6260515448381911e-05 -1.8963329053853745e-02  4.4774245065382316e-05 -1.6923899388194844e-05 -1.7905020550190651e-02  7.5762511293785855e-06 2.2364844744419520e-05 -1.9436183154540015e-02  1.0823375004797898e-05 2.9079918263459830e-06 -1.9415064430421954e-02  8.8266178904607354e-05 -9.2856218664495615e-05 -1.9263498836161238e-02  1.2566089256460742e-04 -1.2090702071104360e-05 -1.8568826664186692e-02  3.4201856105610265e-05 3.5762578451656801e-05 -1.8770453360075705e-02  3.7115217001038516e-05 6.8783009789962442e-05 -1.9209352456414443e-02  -3.0958790152632618e-05 1.4983578533085042e-04 -1.9456862647178792e-02  -1.9187498606595296e-04 9.7481803624005185e-06 -1.8555498591073846e-02  2.3480291067245454e-04 -1.8264578964084617e-04 -1.8613565204141959e-02  1.4545614835373422e-04 -1.7290337251206931e-04 -1.8222128273933040e-02  -3.2295261903937334e-05 -5.9006664001751041e-05 -1.6750760791345982e-02  1.8030482802659195e-04 -1.7725793952578050e-04 -1.8580324160699071e-02  -2.7489266639193947e-05 1.1507992648882072e-05 -1.9179955201758490e-02  -8.2554257036798702e-05 -4.3047382550077122e-05 -1.8553452241679758e-02  -1.2619096106187007e-06 -6.7350862270175858e-05 -1.8611243056279356e-02  -1.9428708426954842e-05 3.3502804523337265e-05 -1.9519141395365744e-02  -5.4334454738737759e-05 2.9425795413076076e-05 -1.8788126109519711e-02  -5.7730909792009935e-05 -1.1054332727384385e-06 -1.8879349556122638e-02  -3.5346440737621505e-05 4.1281539033784202e-05 -1.9060185276591566e-02  -2.4414138997746066e-05 6.1397102172290778e-05 -1.9245123099305077e-02  1.0205961229518713e-04 -1.7246662676333614e-05 1.2448957041967811e-04  2.1963689147960529e-05 2.9462230320319308e-05 2.4563544649963925e-04  -7.4782017102148062e-06 3.2468313794032941e-05 1.8456547976663940e-04  1.6905213190016660e-05 8.1505006313012680e-06 9.5779415794264381e-05  -7.3114938500753286e-05 8.9044176787878522e-05 -1.7912680464955765e-02  4.7149632483613720e-05 7.0622381680321045e-05 -1.9184984784477836e-02  4.4133830801311609e-06 4.0473317641284488e-05 -1.9748642079386699e-02  -4.7994587687668713e-05 -1.7213786580651402e-05 -1.8707429352879223e-02  -1.6857550105546566e-05 -1.3578356314062719e-05 -1.7904036560677121e-02  -1.6123962169838400e-04 2.8846577146600003e-04 -1.9197702985369301e-02  -9.7964767697891753e-04 7.9176946067815231e-04 -1.8171068484652816e-02  -2.8082829512167986e-04 7.1918861521132280e-04 -1.8520893469917202e-02  -3.0737029268384218e-04 2.2609202060644738e-04 -1.7889916166056181e-02  -5.2386539491316303e-04 7.8490285283898571e-04 -1.8227787830854651e-02  -1.3542825539861330e-04 1.4042690990391589e-04 -1.9308188509714920e-02  -3.1720698478996420e-04 4.2061827478012930e-04 -1.8653112856379880e-02  -1.4056942691588928e-04 1.9692354317212989e-04 -1.7248727890544897e-02  -5.5156363544824200e-05 1.4890698455816584e-04 -1.8870990385421810e-02  -6.6232596538831908e-05 6.1342238710579742e-05 -1.8435372285943802e-02  1.9452496986982880e-04 3.2821799854594450e-04 -1.3522494560690265e-02  -4.6076170495929309e-05 4.1149792243089791e-05 -1.7282109786105469e-02  -9.8107140945011712e-05 2.7421308988349636e-04 -1.8956267904446898e-02  -1.7278545470886321e-04 1.8161828646133383e-04 -1.9085856014461139e-02  -6.9679763152822845e-05 1.3007905672107864e-04 -1.9315315802340059e-02  -1.2344547340225242e-04 1.2836030719817125e-04 -1.9069652447731948e-02  -3.2642739136429983e-06 5.0551560843422740e-05 -1.8999448896858739e-02  -4.8530160079413271e-05 5.0105475523985560e-05 -1.9719096753645894e-02  -3.1867471924979059e-06 3.6073559081342625e-06 -9.9806454303820471e-06  2.8551959789625039e-04 6.4002835981271541e-05 -1.2832635700134997e-02  -8.8660633480582994e-05 -2.9186799410376444e-04 -1.4603299001844558e-02  -8.3084798147445901e-05 1.3579127487859885e-04 -1.4469660639468652e-02  -5.0688551151442844e-05 9.7630362736894285e-05 -1.9252179206602483e-02  -1.0247568262129506e-04 3.7754274368880322e-05 -1.8669159043875172e-02  -2.7609045755094254e-06 4.5556768209083825e-07 -1.1003695816750124e-05  9.6527709842652051e-07 3.9732207102741645e-06 -1.1097295988435871e-05  -2.6737380893873471e-05 4.0734692555557695e-05 -1.9818804518961924e-02  -6.0928814572336054e-06 6.2516808853181411e-06 -1.8907845413444366e-05  -1.1670717070977514e-05 9.7147934094913899e-06 -9.0663128844619824e-06  3.2439600960899277e-06 1.0911096617307375e-05 -2.9847853316550835e-06  -1.4742951502853720e-06 -2.2361078059394043e-04 -1.1286216393852353e-02  -1.6947045544858948e-06 1.7209043660074931e-06 -9.8698668368398125e-06  -2.0388712528833418e-06 6.8561759638710595e-07 -9.8420822741544421e-06  -1.8954941258571536e-06 1.0595933446029684e-06 -1.1623257904137234e-05  -9.7469360407930155e-05 6.9314952038639785e-05 -1.4780378608744042e-02  -1.2121910686264688e-04 -1.6677287976961294e-05 -1.8234247910782601e-02  5.8561134049887420e-06 1.7962342506782059e-05 -1.9791134398117964e-02  4.7374329602546195e-05 1.4780908315808124e-06 -1.8850256135008868e-02  -2.6264087079540659e-05 -7.2908393596990477e-05 -1.8280990493836118e-02  3.6283812880901247e-05 -1.8305679339514655e-04 -1.4797044167758353e-02  3.4068457744484298e-05 -2.0215917997555693e-05 -1.9161033569836682e-02  3.7918149842497031e-05 -1.7966176775531794e-04 -1.8846551084549280e-02  -7.3177661593889977e-05 -1.3651377777300458e-04 -1.8233214843345429e-02  -1.5621285623368514e-04 -4.4768922148685505e-05 -1.3236568396163788e-02  2.8103191227607793e-05 3.3951919249833524e-04 -1.6824449589481632e-02  -4.4520194599064893e-04 2.9935100403099277e-04 -1.6269277090477208e-02  2.8909498483497181e-04 4.7439348059949909e-04 -1.7230455461279541e-02  1.7752211864731432e-05 4.3650850266366968e-05 -1.8939913741196149e-02  -2.2037573639258811e-04 2.6179759026491765e-04 -1.5740495362720534e-02  -4.4379879450954271e-05 -4.2103479680146452e-04 -1.4801394503439848e-02  1.6590424262393499e-05 7.8623819088089302e-05 -1.7367983193318216e-02  1.3873957980878527e-04 4.8632295767263208e-04 -1.4866646324420899e-02  -7.1027459910784948e-05 1.3791725498694672e-04 -1.8722077344345570e-02  -4.0842522428177902e-06 2.9555571085548117e-04 -1.5681625424665009e-02  -2.6757128765364248e-05 3.2290137437271377e-04 -1.8272311913982445e-02  7.0178839645319654e-05 1.8938686429696063e-04 -1.3727676642296797e-02  5.9845870878956623e-05 3.5296262714568703e-05 -1.8927052789454585e-02  4.1551586598573747e-05 3.2721839940364034e-05 -1.8691792859114813e-02  1.4945934627625319e-05 -2.2146263275049786e-05 -1.7460617712232455e-02  -1.6241582660622979e-05 3.9725337875050980e-05 -1.6425613206134195e-02  -1.8299427920292553e-05 -3.0289958197878468e-06 -2.3837745276510040e-05  3.4582126133628256e-05 2.7987032228771377e-05 -1.9312923672487083e-02  7.0875973307035375e-07 5.7224830466089532e-05 -1.9507151498311073e-02  2.0210712204244129e-05 8.9499668213683298e-05 -1.9223048549717351e-02  4.1182770284376092e-05 7.7749200171192370e-05 -1.8748652194597322e-02  5.1675994420861752e-05 1.0170526553823463e-05 -1.5585410368645707e-02  1.0797886723019042e-06 2.2048621214646272e-06 9.2885072791367856e-06  -1.7652411409812286e-04 1.0344829989059076e-04 -1.5611303657752556e-02  -1.5722821783569033e-04 2.1429490441715618e-04 -1.2363104363696777e-02  5.8953520462575533e-04 -3.3449978731696497e-04 -1.4682822818565174e-02  8.9192385655407087e-05 -4.0626562145950564e-05 -1.9341894707777380e-02  -1.5124473477035020e-04 -4.6768528794601419e-05 -1.6660978903491053e-02  5.2319832359751658e-05 -2.6526867780545590e-04 -1.7223272238642864e-02  -3.0476043119614363e-04 5.5686584291258254e-04 -1.8235065810001148e-02  -1.9172444964612664e-04 3.1542362518990810e-04 -1.8731450480310760e-02  -5.6810559315954601e-05 1.0802219199514022e-04 -1.3667750617232020e-02  -2.5087533952073435e-04 3.6206183698216267e-04 -1.5871731719342950e-02  -4.4836198017274721e-04 4.5555929777380504e-04 -1.4563030811103578e-02  -2.7318964489482235e-04 5.6922239964075807e-04 -1.8014911800660845e-02  -8.7044936612098902e-05 1.5944810148301825e-03 -1.4122113887769933e-02  -1.9452514969495150e-04 8.0263469587648197e-04 -1.7235534672938941e-02  -2.7724284158743443e-04 2.4709947734702413e-04 -1.7772638821376682e-02  -2.1711820630184285e-04 1.5001191088141787e-04 -1.6857718767729950e-02  6.3349714217062786e-07 6.0917718028212940e-06 -3.1375658351211278e-05  -2.2117619442003654e-06 3.6231237076649020e-06 -2.4019756740596125e-05  -5.3307796823711740e-04 3.4078315066237574e-04 -1.5417013734148019e-02  2.4943430293415019e-04 -1.8160970999345869e-04 -1.2606406745840463e-02  8.3985508724620348e-05 7.0852268863705014e-05 -1.8598744191967411e-02  -3.4316341651215173e-05 9.1282493788058739e-05 -1.8255170233195762e-02  -2.8412220948016409e-05 4.9268312035473486e-05 -1.9391979688012932e-02  -6.2648726838275697e-05 7.9552358763939238e-05 -1.9330611520448578e-02  2.3373268302112113e-05 -1.5406646534515705e-05 -1.8887879189519972e-02  -6.3180339606242233e-06 5.3861462280262770e-06 -2.5324076364251413e-05  -4.3902798862153837e-07 3.6485914534234435e-06 -2.4196759125156727e-05  -7.4969882469311946e-05 -2.6689274326300527e-06 -1.6617416666025755e-02  2.2591465614430703e-05 6.4259947181068234e-05 -1.8777044227714354e-02  -8.3511994371949575e-06 1.5172639747565969e-05 -7.0018495533912724e-05  -3.6465652866266329e-05 2.0390029615209102e-05 -8.7821624819245644e-05  -1.7345703607904942e-05 7.9302315403300493e-06 -5.1898203258012658e-05  -1.9942364200938425e-04 2.5590419645555673e-04 -1.5667798387704341e-02  -1.0350814232797193e-04 1.0724241260889822e-04 -1.8220517982314170e-02  -4.2771440145792745e-05 -2.4572673873829352e-05 -1.6571169829129661e-02  -6.4137318171200947e-05 5.5825118092269316e-05 -1.8757457551592378e-02  -1.2852196636134177e-05 -1.1266356831896734e-04 -1.5981387427926812e-02  -6.8944901278955692e-05 -1.3318330455090049e-04 -1.4566034577433455e-02  1.8542724669964154e-04 8.5644057955625422e-06 -1.4642682158232121e-02  -1.8555615481938423e-05 8.0586620382550525e-05 -1.7522348871398738e-02  -3.6519897582954543e-04 -3.1302549502052986e-04 -1.5057566591889261e-02  1.3344180270905649e-04 -1.7400345619395747e-04 -1.2596885446940155e-02  -1.0303687102139833e-04 -7.1106331744634455e-05 -1.6596758725255619e-02  1.2897505379173923e-05 1.2291364302086653e-04 -1.4987265857660291e-02  1.0609926754928496e-04 -2.7451950737039936e-05 -1.6166544836846715e-02  7.2073253665209253e-05 3.1814731476216871e-06 -1.3034543475531297e-02  1.0183710270789783e-04 6.8327678614181475e-05 -1.6119063417293741e-02  8.2559604735966903e-05 -6.3839521536395740e-06 -1.8016004199236602e-02  -7.1162777334871663e-05 -3.6243342298267693e-07 -1.8507213778814955e-02  -1.0254220444067546e-04 9.6556770122996572e-05 -1.2443329240723808e-02  3.1039848872975600e-05 6.7085735796058094e-06 -1.8186504035830550e-02  -1.9243230921699769e-06 -3.7545255810662150e-05 -1.7176092352026658e-02  -3.1414231858557006e-05 5.5779006791898758e-05 -1.7963492422239834e-02  2.4463933086250395e-05 1.2590579798648764e-05 -1.9196220043896501e-02  -7.0749959088252823e-05 7.8162266204011107e-05 -1.9530520301881890e-02  -1.9610596508202778e-07 2.1360172743048859e-06 -6.9698718156242259e-06  -2.5673109099718720e-07 8.9822852649409630e-07 -8.7101316454925397e-06  4.9389383823537842e-07 -1.9466818073791621e-06 -6.5797732146966267e-06  1.6175743645173560e-05 7.6177932730271612e-05 -1.3649646515793401e-02  -1.4255499199888438e-04 1.2293593008547775e-04 -3.6009181112947114e-04  -4.8664659831922723e-05 5.5489992341203171e-05 -1.4652518886429866e-04  -1.1964068073548645e-04 6.6012049635216704e-05 -1.6550782827571181e-04  -4.7610278089610733e-05 1.3861397942730938e-04 -2.0192438116735847e-04  -9.2031158472536824e-05 9.8717122361429241e-05 -1.8591191820204765e-02  1.0620668216613229e-04 9.5572525890978170e-05 -1.8729028041102019e-02  1.0115081939948170e-04 -5.6799963355790339e-05 -1.2146610399792323e-02  2.5297294084715644e-05 5.7359529238477675e-04 -1.5363359848264202e-02  2.8804551208345383e-04 4.6999995018869004e-05 -1.6671459553005877e-02  -9.1774461170302649e-05 2.2303103358545286e-04 -1.5372235397565400e-02  -3.7253971748266932e-04 2.1599683878636386e-04 -1.8023175720359465e-02  -2.2166872215475450e-06 2.4971312671902000e-07 -1.6520479757317001e-05  4.1597285903858980e-07 4.9921168642134576e-06 -1.5587990958950184e-05  4.0732776141082423e-04 -3.5724706487922611e-04 -1.4253531889377202e-02  -1.5324824795168434e-04 1.5853429626757462e-04 -9.1882062351005770e-03  -1.7746891909236113e-04 3.9728817651364072e-05 -1.7187263409112623e-02  -9.8415745627272082e-05 1.8674701357239068e-04 -1.8068488416846173e-02  2.9440773100548979e-06 3.5519105770375430e-06 9.9414089175687838e-06  -1.5822208194523018e-05 5.2380073071348129e-06 -8.0919868072638015e-06  -4.4036508611595748e-05 7.3508345182118650e-06 -4.5050226361122560e-06  7.3251472688789200e-05 -5.6215979890798167e-06 -1.8321992873445374e-02  -4.6759458366311677e-06 -6.4309502754658824e-05 -1.8380207306731129e-02  4.3258315979660736e-05 9.3865597641889529e-06 -1.7724736463885480e-02  1.1899760788416855e-04 7.9517560436571152e-05 -1.5864738417076096e-02  4.3768015510117677e-05 -2.1092484884157027e-05 -1.5350054400298907e-02  1.0814660970912105e-06 1.6235855673392052e-05 -1.9289995706698308e-02  9.6930029967260839e-06 -1.0416416098938818e-05 -1.9211659548901527e-02  -3.5230210969308625e-05 -3.5372728817035354e-05 -1.6525945656797221e-02  -1.0307302002994289e-04 -5.5098710698561342e-05 -1.7429569382675765e-02  -3.2830393568804626e-06 2.0886836725401313e-05 -1.9444666620228920e-02  7.6687188480099590e-05 -1.4960449581924527e-04 -1.6749859341162181e-02  -7.4024909825269474e-07 -4.8120147823852851e-07 -8.7513583070247040e-06  -3.5167699189330177e-06 8.4936372450060683e-07 -9.4994106199073965e-06  3.6164813895524071e-04 -4.0826108999141719e-04 -1.3821576750459892e-02  -3.3955735484646849e-04 7.5483340589025313e-06 -1.3727273357174757e-02  -3.9451491872199114e-07 2.3390954456293850e-04 -1.7413646485611549e-02  -3.9586364810903227e-06 2.0868874937368624e-04 -1.7143572511254365e-02  4.1301916276331477e-05 1.4570277485693493e-04 -1.9160393042986001e-02  -5.5485715348249800e-07 -1.6806418301116277e-06 -1.0954452628880723e-05  -2.8991527455625393e-06 9.7402378854873548e-07 -9.0938728816317914e-06  -1.2470689043972383e-05 -1.1859465985742667e-04 -1.8828110860247341e-02  1.3712029265484048e-04 2.7194393212072394e-05 -1.4005365084861270e-02  -3.7111399565329056e-05 -7.6998260761164191e-05 -1.3018716637604417e-02  -7.8474747437325067e-05 1.6317516846307587e-04 -1.7392882817503959e-02  1.3443826197994015e-05 2.7547197122873660e-05 -1.9377467547033952e-02  1.3098997851584580e-06 2.3595265172294003e-07 -1.9285287949651528e-05  -7.3515545038686614e-08 6.8061646321932319e-07 -1.7601661681180763e-05  -6.4283709930244922e-07 8.2401177439886254e-09 -1.4709888040127537e-05  7.3810896126019445e-05 3.1941683715521744e-05 -1.5888350090519917e-02  2.6610625798086492e-05 2.1051509385977411e-05 -1.9027217809654797e-02  1.2704956078435284e-05 2.9622312506950309e-05 -1.9419248406085596e-02  -9.5796718797801454e-06 1.9482082543810258e-05 -1.6646982158229167e-02  4.6993786420443085e-05 2.5030385266079706e-05 -1.9125156142740053e-02  -4.1948314382245469e-05 -2.5847068635565020e-05 -1.9216319974849197e-02  8.5002025308762370e-06 1.0213061422045213e-05 -1.8402794296631438e-02  -2.4206852490107846e-06 -8.2629359626708886e-07 -1.3941649751801082e-05  -4.4512116323610365e-06 1.7931283732886902e-06 -1.4356136904462484e-05  -1.7302239742560214e-04 -7.2213143230788064e-05 -1.4604428895343906e-02  1.1134649240059448e-05 8.6351785947600079e-05 -1.4047485596922702e-02  1.4452764740975220e-04 -5.9169072035623596e-05 -1.8004863558116337e-02  6.7749758538625729e-05 -2.7185498881216385e-05 -1.8255357631398288e-02  -1.8488353679591937e-05 2.3958571938359693e-05 -1.8950188679230165e-02  4.6579067298690616e-05 -6.8502012777597979e-05 -1.6711697382942727e-02  1.0291670341253468e-04 -1.3837550782407781e-04 -1.6700514196377726e-02  -4.8923855767806088e-06 5.2743468941459137e-05 -1.6051676230697108e-02  4.5697831148194991e-04 -2.0292764457471049e-04 -1.6914592017867384e-02  7.9000893921992604e-05 1.1628297407674667e-05 -1.9311926141562127e-02  1.9373687323675384e-04 9.6069126748798527e-05 -1.9809563645031752e-02  1.1008299897759281e-04 1.7385412705653252e-05 -1.7694037138550851e-02  1.2382837827124029e-06 9.9398520633684947e-06 -1.9256027328053305e-02  1.2039436054132317e-04 -6.2365031898240712e-05 -1.9050179284768130e-02  5.2530701396000735e-05 -9.5133863490251414e-05 -1.9262784612933504e-02  2.3586857011280688e-05 -2.3076229585287112e-05 -1.9397768145993713e-02  7.0019610576515083e-05 4.6097907754810450e-05 -1.7122574473744271e-02  -3.9234423506640012e-05 3.9629991747254228e-05 -1.7394517000621813e-02  8.1963544263738205e-05 -4.5456402696781953e-05 -1.1345491107166884e-02  2.0805445849461224e-06 -2.4812785170884875e-05 -1.6451954909485689e-02  -2.1700732184967491e-05 -1.0998716176610331e-04 -1.8917494167245547e-02  -1.6897733899208259e-04 -1.8348653776591753e-04 -1.7799805123427923e-02  3.3938850680922929e-07 1.9136066177879136e-04 -1.7083479317742838e-02  -1.5144605094458344e-04 3.9315489658420973e-05 -1.4931335460870781e-02  -3.7894952608773087e-05 -7.6427322869285661e-05 -1.8214301301451546e-02  -8.4008514829648964e-05 -1.2346087589098516e-04 -1.3047311343645576e-02  -7.5932398435680278e-04 2.0933198332785397e-03 -1.3915536516001950e-02  -1.2751788732759670e-03 1.3094034265520383e-03 -1.3363122326464810e-02  -2.5830430251030153e-04 1.3193508525640671e-04 -1.7891788522872203e-02  -1.6220310856779262e-03 2.1160186688383180e-03 -1.6432995704045751e-02  1.7619911406194035e-04 4.9262818702291446e-04 -1.7591754015252498e-02  1.6594997113171523e-04 3.9692647032143363e-04 -1.6040825258158514e-02  2.3970478458979840e-06 3.7019713173206629e-06 -5.8490842056454160e-06  5.6557686446583346e-06 -4.7276003749233567e-06 -2.8847551613769226e-06  -1.5894556281935946e-06 5.1466823177668752e-06 -4.8450566824793798e-06  1.7732711216463676e-04 -7.9348786058512809e-05 -1.5317724232452099e-02  -2.9766654865909470e-04 8.2732954278141201e-05 -1.7293791667121805e-02  -2.2992375580161619e-04 2.2471201889227911e-04 -1.6128202174867236e-02  -4.9380660554666463e-04 5.5070720790001404e-04 -1.5825045922767386e-02  3.7916844751089123e-04 3.3691537562511128e-04 -1.5261783618056583e-02  -2.0709697391380221e-04 -3.3061623671471889e-05 -1.7812605754913811e-02  -2.3375389885628024e-04 -2.1517398626163547e-04 -1.7151274014579904e-02  8.0172021962862875e-05 -4.7680367972699238e-05 -1.4275328314576365e-02  -1.2796573403089494e-04 -5.7083947652869515e-05 -1.5344467290837037e-02  1.4548907715896223e-06 3.2553888943029845e-06 -1.9066014699252025e-05  -5.5777973155332272e-07 2.9819366265236737e-06 -1.8801890837303147e-05  3.0006991693889459e-05 4.3890999689301038e-04 -1.7128353839564587e-02  2.7313202724188144e-06 1.7812561054739062e-06 -1.52188637