<?xml version="1.0"?>
<VTKFile type="UnstructuredGrid"  version="0.1"  >
<UnstructuredGrid>
<Piece  NumberOfPoints="857" NumberOfCells="3763">
<Points>
<DataArray  type="Float64"  NumberOfComponents="3"  format="ascii">-0.0182597916573 0.126128911972 -0.119588643312  -0.0077641364187 0.0512270443141 -0.07050477713349999  -0.0237180162221 0.16240182519 -0.053058128804  -0.107877351344 0.105669431388 -0.0502408407629  -0.0444478429854 0.116080775857 -0.00235075876117  0.0393674038351 0.112876079977 -0.0491501875222  0.0248903874308 0.0489483103156 0.000152088920004  0.0314915925264 0.114928804338 0.0218031276017  -0.0657326281071 0.0685198307037 0.0497140102088  -0.0355357266963 0.164656624198 0.0508319064975  -0.010538729839 -0.0422629192472 -0.208358153701  -0.0239527057856 0.0135364839807 -0.242119863629  -0.0194642152637 -0.0775559768081 -0.263431429863  -0.08492307364939999 -0.0108216870576 -0.280446648598  -0.08293507993220001 -0.0361198186874 -0.159778758883  -0.0240796487778 -0.0824203491211 -0.148982465267  0.0430508553982 -0.121076337993 -0.234084427357  0.0307756774127 0.0324950888753 -0.198437720537  0.00352357281372 -0.00433266581967 -0.144715368748  -0.0456651262939 0.08372022956609999 0.342343091965  -0.116630032659 0.0117083769292 0.386158525944  -0.08223126828669999 0.0577075146139 0.289406776428  -0.0511222109199 0.00205342215486 0.300772219896  -0.0125984866172 0.0267426930368 0.351842552423  0.0303636882454 0.0561947338283 0.391145974398  -0.0524924062192 0.0543583929539 0.40361738205  -0.07944945245979999 0.130002260208 0.441037595272  -0.000730989675503 0.119443200529 0.385622620583  -0.078488714993 0.137875169516 0.332541137934  0.0142801422626 0.110509291291 0.27100610733  0.0224165506661 0.08303219079970001 0.331783413887  -0.0170432701707 0.161798536777 0.30022162199  0.000811119796708 -0.0515509881079 -0.08419398218390001  0.0888616070151 -0.015075173229 -0.0776951387525  -0.0989535748959 -0.0518730916083 -0.08125374466180001  -0.0433920919895 -0.09785594791170001 0.0106235472485  -0.0488061010838 0.0295096840709 -0.0131453983486  -0.25 0.25 0.5  -0.166666666667 0.25 0.5  -0.25 0.195066730511 0.445658150344  -0.19506166517 0.25 0.445542865294  -0.0213422998786 -0.126349791884 -0.045622177422  -0.117952652276 0.0158270020038 -0.16616243124  -0.0531469397247 0.0490713231266 -0.13630309701  0.0358348339796 -0.131537660956 -0.134171053767  0.0583617314696 -0.115307979286 -0.0462360456586  0.010585160926 -0.0606908276677 0.314250290394  0.078067921102 -0.133790805936 0.331458956003  0.0206208750606 -0.104583717883 0.36723652482  0.0300164371729 -0.13569638133 0.270959883928  0.0797956883907 -0.07311873137949999 0.388136893511  0.0291880238801 -0.0850581228733 0.220644980669  0.0788302049041 -0.07555303722620001 0.284453928471  -0.0465739220381 -0.108428947628 0.305151432753  -0.056692365557 -0.0812899768353 0.234353885055  0.10282895714 0.0630551427603 -0.0452189296484  0.178613707423 0.153893724084 -0.0703043565154  0.0750898644328 0.130835875869 -0.116260357201  0.0179002508521 -0.0400723591447 0.396018892527  0.07961820065980001 -0.020668130368 0.232235535979  -0.00726175494492 -0.022667773068 0.242156982422  0.0524490773678 0.0171752162278 0.310696065426  0.0103002395481 0.0813155695796 0.107229083776  0.00225681974553 -0.008687185123560001 0.0457225777209  0.177950121638 0.25 0.0405701099774  0.151375159621 0.202163234353 -0.00268407491967  0.13042794168 0.172564610839 0.0599601529539  0.184557154775 0.16295710206 -0.00737970136106  0.0827306732535 0.011830884032 0.0299163535237  0.106673434377 0.0676268041134 0.0663062110543  0.25 0.25 0  0.25 0.177947182503 0.0435581305687  0.0251978598535 -0.0201241951436 -0.0233656335622  -0.25 -0.25 0.25  -0.175495340629 -0.25 0.295351832328  -0.25 -0.175776260788 0.294629825204  -0.164853364229 -0.189889326692 0.246240898967  0.111295968676 0.25 -0.00354384794953  0.0417815256417 0.25 0.0264120515999  0.0577150444892 0.25 -0.0418173710713  0.035034801811 0.196921139956 -0.0497792549431  -0.115254960954 0.0352221727371 -0.0357825122774  0.0360979661345 0.0743419006467 -0.130612716079  0.08110298216340001 0.0143552683294 -0.135737240314  0.0281950440258 0.110801942647 -0.38559025526  -0.000352636008756 0.154027625918 -0.45018479228  0.0220217909664 0.07910815626379999 -0.445265561342  -0.041934799403 0.09297795593740001 -0.440330862999  -0.115356497467 0.128115877509 0.0303980205208  -0.08144567906859999 0.192924261093 -0.0396481454372  -0.0503155887127 -0.140062868595 0.370642662048  0.0181560348719 -0.191118896008 0.319997102022  -0.09442232549189999 -0.0766885429621 0.347179293633  -0.10306725651 -0.0245223585516 0.261891931295  -0.0371639840305 -0.192689821124 0.258922994137  -0.08778057992460001 -0.193450272083 0.293951839209  -0.116932563484 -0.137108251452 0.278956532478  -0.0434515699744 -0.19969072938 0.340430229902  -0.016621209681 -0.143479332328 0.208528921008  -0.0799133181572 -0.177766740322 0.206858798862  -0.0340202823281 -0.07231882214550001 0.405357718468  -0.153045728803 -0.0703692808747 0.28540495038  -0.0647673308849 -0.069349065423 -0.297796696424  -0.0468406006694 -0.118580199778 -0.331259429455  -0.0636249184608 -0.122360698879 -0.235275790095  -0.137311711907 -0.115820750594 -0.279358655214  -0.25 -0.25 0.333333333333  -0.00222280388698 -0.0275516584516 -0.327156513929  0.0233143884689 -0.124395690858 -0.330935031176  -0.00544846989214 -0.0444226972759 -0.392852008343  -0.07202984392639999 -0.0450558848679 -0.379192590714  -0.128861442208 -0.0482712239027 -0.325591087341  -0.0319190612757 0.25 0.27473160228  0.0259018652141 0.196524605155 0.343851953745  -0.0424101948738 0.196461260319 0.324036180973  -0.08801463991400001 0.193724930286 0.280150324106  -0.051391992718 0.129726842046 0.244459152222  0.0793330296874 0.131078347564 0.273738384247  0.0304427426308 0.197590425611 0.258007407188  0.139736711979 -0.103549621999 0.308288753033  0.117407329381 -0.00031748006586 0.284001767635  0.17845864594 0.0137020656839 0.2717012465  0.133446916938 -0.07468281686309999 0.252671837807  0.193237304688 0.0103836003691 0.32706490159  0.108656100929 -0.016409387812 0.370573759079  0.195593327284 -0.0705924406648 0.374003827572  0.204297035933 -0.0882691517472 0.283604085445  0.15987212956 -0.0232784096152 0.211559042335  0.103109702468 -0.0715631917119 0.185957938433  0.25 -0.177950121638 0.0405701099774  0.25 -0.111295968676 -0.00354384794953  0.168315500021 -0.181550845504 -0.0129796266556  0.203061833978 -0.0839376300573 0.0201103240252  -0.123973377049 0.0421161539853 0.0831994190812  0.10652089864 0.041568480432 0.133020982146  -0.00508088478819 0.00464248098433 0.118765294552  0.0384838804603 0.0542355030775 0.219570666552  0.0556482039392 0.09942726045850001 0.165778696537  0.25 -0.25 0  0.25 -0.17904445884 -0.0421267671166  0.0085972994566 0.139411628246 0.206887423992  -0.0427397117019 0.0734880268574 0.199836358428  0.25 -0.25 0.166666666667  0.177338154858 -0.25 0.209433902167  0.178222204231 -0.25 0.126578397361  0.180748909712 -0.154124230146 0.180074676871  0.118582360446 0.0498475395143 0.233844980597  0.113276541233 0.115120351315 0.208414897323  0.068451166153 0.123325429857 0.09300038218499999  0.08695217221980001 0.18308262527 0.11987875402  0.1366494596 0.0978636816144 0.125807240605  0.0170362386853 0.165571182966 0.116205818951  -0.075325883925 -0.13042730093 -0.120773427188  -0.191016584635 -0.1764793396 -0.0778442546725  -0.102759346366 -0.20253264904 -0.07015967369080001  -0.126150563359 -0.115044787526 -0.0573479756713  -0.138729035854 -0.104583211243 -0.134180948138  -0.147993162274 -0.138949289918 -0.203295826912  -0.180331096053 -0.192031860352 -0.160557568073  -0.194399222732 -0.0846866071224 -0.148938387632  -0.11259970814 -0.078034222126 -0.193649172783  0.0326924659312 -0.122268341482 0.0296003930271  0.0215157996863 -0.180560961366 -0.0757267251611  0.0956164896488 -0.0493310950696 -0.0164182558656  0.112129375339 -0.112067811191 -0.105549775064  0.127802968025 -0.106147237122 -0.0110959038138  -0.0854129120708 -0.015297700651 0.056893799454  -0.0204317308962 -0.0795602425933 0.117458000779  -0.178222204231 0.25 0.126578397361  -0.177947182503 0.25 0.0435581305687  -0.107976816083 0.25 0.0905854563709  -0.157577678561 0.178241759539 0.0969507619739  0.25 -0.25 0.333333333333  0.25 -0.25 0.25  0.175776260788 -0.25 0.294629825204  0.25 -0.175495340629 0.295351832328  0.0932372882962 -0.0430554822087 0.0724518448114  -0.044769000262 -0.00661279587075 0.403999477625  -0.194478780031 -0.0247275307775 0.332954645157  -0.173761367798 -0.0806607827544 0.396263659  -0.137637495995 0.00523930834606 0.315887242556  0.0864742994308 -0.139340251684 0.176064118743  0.105438224971 -0.136641919613 0.253711819649  0.0308670303835 -0.25 -0.136809572586  0.0367561832589 -0.25 -0.219583441074  0.0925811678171 -0.20055809617 -0.19996842742  0.0127155454829 -0.193433105946 -0.225977659225  0.0415658205748 -0.200880005956 0.196522325277  0.0373581312597 -0.119548290968 0.120048768818  -0.0954102815882 -0.25 0.346414074494  -0.101368582479 -0.25 0.251933327382  -0.0374909392175 -0.25 0.286229296012  0.0852289572358 0.109103307128 -0.27055695653  0.07707493752239999 0.127253636718 -0.199824258685  0.128097131848 0.07648140937090001 -0.209757223725  0.154867321253 0.13628205657 -0.212952241302  0.08678253740069999 0.189277544618 -0.274375885725  0.127699971199 0.0803090333939 -0.326344817877  0.0577741526067 0.0601542405784 -0.31936660409  0.0525139421225 0.129102528095 -0.326874881983  0.0251371748745 0.175572559237 -0.261228203773  0.0199144631624 0.0927290171385 -0.265960127115  -0.148952946067 -0.121583275497 -0.374568909407  -0.25 0.177950121638 0.0405701099774  -0.25 0.111295968676 -0.00354384794953  -0.175531774759 0.135734900832 0.0562076568604  -0.178730383515 0.191659659147 -0.00562386959791  -0.0244714934379 -0.108516678214 -0.387223660946  -0.09279609471560001 -0.170035287738 -0.445968538523  -0.0281062982976 -0.0
[...]
<PointData  Vectors="f_78"> 
<DataArray  type="Float64"  Name="f_78"  NumberOfComponents="3" format="ascii">-2.4423511463446011e-05 -3.1300030085699274e-05 -4.1156678692144998e-03  1.2815808695251769e-05 2.9718686691685540e-07 -3.3012390718881110e-03  5.6353691154231721e-05 7.1660648207909808e-05 -3.5170677028990311e-03  1.1073783318476377e-04 -7.7234193418582718e-05 -3.4803509940992401e-03  4.0168954383162505e-05 -4.5655249130034699e-05 -4.2436612148384952e-03  -8.8778352513831598e-05 -2.2336492777623209e-05 -4.6489495063381974e-03  3.4977860907286663e-05 -9.9032891130705539e-06 -4.0967519219154477e-03  3.9352187830869800e-05 1.7421620766643104e-05 -3.6946812654085168e-03  -6.7087757274959731e-06 -2.7426254859763188e-05 -3.3702898729392433e-03  -8.5925167261427407e-05 2.2457815217967745e-05 -3.7310444966476585e-03  8.6456262980511567e-06 6.3053477616781880e-05 -3.0660945092095679e-03  -1.6239098982140509e-05 1.8784573416107032e-05 -3.6544077420696199e-03  -4.1746727166730004e-05 4.3053430424553356e-05 -3.8401722721366814e-03  -3.3579605417828532e-05 1.5880931872577994e-05 -4.3354101197835247e-03  -1.2753200392274267e-05 2.1713764436138329e-05 -2.4314726472341769e-03  -3.8392698925029635e-05 7.1864837224658106e-05 -2.6462261590500060e-03  2.0265862009678884e-05 8.3716119074772811e-05 -3.0052979188259781e-03  1.8480387488193149e-05 2.3714214755867759e-05 -3.0263076182144243e-03  7.4001082939145813e-06 -2.9818107790402284e-05 -3.0820919542652596e-03  1.2336889593396445e-05 -7.1282964020437980e-05 -4.3132999754770356e-03  6.5749010979511527e-05 -4.7855509995461737e-05 -3.6377217146822374e-03  -1.9816957609895556e-05 -1.2350547249554317e-04 -3.9110605069369343e-03  -1.4959297554741503e-04 -7.1406888683661938e-05 -3.8318318078055186e-03  -3.8223107275873924e-05 8.7400940512398332e-05 -4.6603839132133180e-03  -4.2553829415081257e-05 -2.1047585898835264e-05 -3.7929601551370119e-03  5.6954053690934454e-05 1.0037224913453236e-04 -4.1740274268258380e-03  1.7745487135975406e-04 4.6617960661311023e-05 -4.0000891277541329e-03  -3.2327077065157719e-05 8.9247754060653370e-07 -3.7139408247929633e-03  -4.0500240643925788e-05 1.9393812293212241e-04 -3.1758677567642253e-03  -1.1174080030754904e-04 2.1038754348463480e-04 -4.6092349941417076e-03  3.5863296634232503e-05 8.5004486963261342e-05 -3.9495911045555471e-03  -1.8092616302613120e-04 -4.6615601768072486e-05 -4.0382241276783193e-03  2.0202765227377389e-05 1.6113332314164416e-05 -3.7239872903672968e-03  -1.9388927404335687e-05 2.8308233612933882e-05 -3.6493751772324677e-03  -2.5026025297228200e-06 1.1947204260639089e-05 -4.0847455510195788e-03  1.6010794424278599e-05 5.5164012870057358e-05 -4.1112548613354066e-03  6.1594113099195014e-07 2.2881235474101874e-05 -3.9531374814988458e-03  9.1645521365255487e-06 -3.2818457756070619e-06 3.6263645801458535e-06  2.8759528614564606e-06 -3.4294399943118608e-06 1.4151517225264934e-05  -3.5393658398974393e-06 2.4468074553779949e-06 1.1286110042452996e-05  1.7014019554648675e-06 -4.7254403975634027e-06 6.9538235585083692e-06  -1.5926592145581554e-05 5.9523279104098908e-05 -4.1514391604413631e-03  -5.1961203603880432e-05 8.7798109765648213e-06 -4.2656011888543167e-03  -5.4644445111325547e-07 3.9095641350180027e-05 -4.2824850852355469e-03  6.4512587380170566e-05 -7.9445302193316712e-05 -3.6223320522708684e-03  -4.2202187131317508e-05 -2.2992167835004039e-05 -4.3581673061692935e-03  6.8792119437520029e-05 1.2201625023450295e-04 -3.8669747240349162e-03  -1.3652787264677852e-05 6.4986906589794424e-05 -4.6608484664429801e-03  -1.0238146338258902e-04 -8.3921287332110252e-05 -4.2635817634670697e-03  2.0669317025547312e-05 1.6765101294217871e-04 -3.2964853401620804e-03  2.3994561149621024e-05 -1.0708621229537103e-04 -4.4716960280394135e-03  -4.4025175977039081e-06 -8.3715514669695134e-06 -3.4323463616102176e-03  2.0239653938282319e-04 -3.7047696907293483e-05 -3.8847323691905467e-03  -5.4189513470126571e-05 -2.3681769735755254e-04 -3.7022709609767792e-03  2.2694012987383484e-05 5.5552842270524206e-05 -3.5068172484219447e-03  -4.0324798642339919e-05 -2.5082006297925013e-05 -3.9873248297119671e-03  -1.1477549771611807e-04 1.1739705832557811e-04 -2.7838325493458149e-03  5.4214869931595469e-05 5.1167351388605802e-06 -4.1529388298800728e-03  -6.3284343784690669e-05 7.3538183973492500e-05 -4.1745068945902471e-03  -9.7715543165685303e-05 -6.9668278236713628e-05 -5.0209143455064390e-03  -4.4597641602999442e-05 -6.3280750077689864e-05 -3.2383735838796206e-03  4.9041860759534836e-05 1.0085723819305144e-04 -3.9354042198435678e-03  -1.3826391975060164e-05 1.4517028633018647e-05 -3.8526360774242519e-03  1.0744779348953964e-05 -8.8274833670032010e-06 -3.7972986479159199e-03  2.0601822380997372e-07 -9.3730796595775046e-06 1.8779764321812357e-06  -2.6946646369697865e-04 -4.0471056748151730e-05 -5.5381171471523818e-03  1.1865276390497202e-04 -2.9200272506677694e-04 -3.5885287939786872e-03  -5.3543592313449202e-05 1.6425058660298104e-04 -3.2052756973911791e-03  -1.8653204038804742e-07 1.5408123004734195e-06 -3.6555680290410258e-03  1.9980202765995517e-05 -2.3854159949427037e-05 -3.5443812605666239e-03  -1.4538116245865845e-06 -8.3813735715877893e-08 -1.0124748421843364e-06  -1.1020722571687865e-05 8.6035630296571353e-07 1.5472485106647281e-06  3.7550749940076535e-05 2.5271041857123337e-05 -4.0567639080323382e-03  7.7287291830735825e-07 3.4898801067748453e-06 -2.0206840353828498e-06  1.2500193445160959e-06 7.7952584298224491e-06 2.1477135832862184e-06  2.4370898063729872e-06 -2.0946167000680924e-06 4.4276699256795314e-06  1.4301420266450371e-04 -3.8311331814476723e-04 -3.1100917633072487e-03  -1.2439942670407310e-06 2.6301062239389740e-06 -7.4582621719968097e-07  -1.3702360096106031e-06 -2.4343891185761112e-06 4.4355926179945304e-07  -3.8599762443618946e-07 1.2612780931510634e-05 -5.2498846610143403e-07  2.8255713017290185e-05 3.8870945500873538e-04 -4.0498556665146531e-03  -3.5719209887995230e-05 -7.2163890988256827e-05 -3.2176620301142440e-03  1.7830133893024283e-05 -1.8049390122459788e-05 -4.1010366541081571e-03  -8.1571540561685856e-06 -8.6078256598383436e-05 -3.9908183068464043e-03  2.4649237687358494e-05 -6.0913582829829508e-05 -3.0547345766820805e-03  -1.3471958596611794e-04 -1.1125430279581693e-04 -3.0499724764943550e-03  -3.3019666577060134e-05 -1.2610231549747122e-05 -3.3375592646333685e-03  5.8375233649733692e-05 -1.1688527605868549e-04 -3.6655644053880786e-03  -1.7232159397260295e-04 -2.6571495467855641e-05 -3.9980650727740787e-03  9.5256976229779853e-06 -2.5311804727616615e-04 -2.9744962924925489e-03  -7.8930752151513630e-05 -1.1585852540690159e-04 -3.5417172853385781e-03  -7.6028577362653005e-05 3.1886884831215580e-05 -3.1886989213022036e-03  1.8869745188727899e-06 -5.3550880693141739e-05 -3.4959215529953361e-03  1.5896272362109204e-04 -2.0947681724768448e-04 -3.4300506256697209e-03  -1.5976073104886557e-04 -9.6173310253216078e-05 -2.9601266864017622e-03  -4.2425779498739761e-05 -1.4098636555615464e-05 -3.7193372652171326e-03  2.7284786510201102e-04 1.4633214861071059e-05 -4.1410121961039121e-03  1.0427475277218282e-04 -4.2860145882407750e-04 -4.1781525845583445e-03  -5.6132036207339892e-05 -3.4398877717230343e-05 -4.0466030889476957e-03  -2.3380424354954723e-05 3.1373737233963224e-04 -3.7409012511344674e-03  -1.6497276650788424e-05 2.2255948594159374e-04 -4.4671825215024602e-03  4.7363431005072839e-05 -6.3065918549857560e-06 -2.7881848172711002e-03  -5.7255688777346722e-05 -2.8567084655284965e-05 -2.8435041925898453e-03  1.0613727472297700e-04 -2.6847834663202031e-05 -4.7105638355480700e-03  7.8248880303266439e-05 7.5305449623293931e-05 -3.9063572906574522e-03  -2.8401515778656572e-05 5.3510944404784689e-05 -3.6122952936178013e-03  -9.9448005797702491e-06 -1.0883042137430849e-05 1.6779703196075160e-06  1.0853711116073808e-05 2.6087142142688414e-05 -3.5483329133441975e-03  2.4542112876602840e-05 1.0892170686049608e-05 -4.9094307647538178e-03  1.9341327914819969e-05 4.3830001365881230e-05 -4.0317925536136803e-03  4.5318920385284332e-06 -1.3149528631706820e-05 -4.0704663711884177e-03  5.5075368915753120e-05 1.1398470913401815e-04 -3.1197728672456987e-03  4.7912857584401803e-07 -3.1513570044497469e-06 1.5299986707035278e-07  -6.0879809455167809e-05 5.0056722426481944e-04 -4.0229155162133587e-03  -1.9700605603307770e-04 4.5023023882233065e-04 -4.5125877868029468e-03  4.5257765996778882e-04 -4.6698386439881335e-04 -3.0053631750758406e-03  -2.0871568955861173e-04 1.8727460579380498e-04 -4.4188766321007905e-03  8.0203134699348590e-05 7.1779001827508365e-05 -3.3219993706049035e-03  1.0861235904313070e-05 1.9473816169151097e-04 -4.6086473660271899e-03  1.6132143534302266e-05 -3.4674146438998908e-05 -3.1387919224563437e-03  -4.6228741032788990e-05 -2.3535289703922934e-05 -3.5141500343966597e-03  5.6314677195374467e-05 6.8647781650789296e-05 -2.0103485115438523e-03  -9.3937842558329481e-05 5.1075566622251765e-05 -2.9106460898784613e-03  2.0035089791663278e-04 -2.1510721176178511e-05 -2.8534099072966509e-03  7.9444892835078474e-05 7.0239824111887865e-05 -3.8234288334259062e-03  3.7605258353663675e-04 -4.7368169142968021e-05 -2.7481782071815636e-03  3.1136739360314118e-04 1.4698656515001939e-05 -4.7382101413940654e-03  -8.3545905368334787e-06 -8.1191809765971510e-05 -3.3677627870791773e-03  1.9880664989086396e-04 7.6638757431296916e-05 -2.3906933864052951e-03  -1.5660516293238170e-06 -3.4974113949248958e-06 1.7567165795938615e-06  7.5815593231457387e-07 3.4262027674083024e-06 6.8854597024594920e-07  -2.0634250669489783e-04 2.9705618445036869e-04 -4.7618030817021036e-03  1.0559460158372839e-04 -3.3427750606487144e-04 -2.5556934577750283e-03  2.7474857339120048e-05 3.6503510322541489e-06 -4.0444423237021602e-03  -1.6533401178028923e-05 -6.3394029310461295e-05 -3.6412722280138423e-03  1.4515866671549340e-05 -1.8461336863825400e-05 -3.6372874069298682e-03  -2.1199778347174214e-05 7.6288554489917576e-05 -4.4285245232637905e-03  -3.1938618068634126e-05 -4.5574017926284251e-05 -3.7080378529306345e-03  6.1315432437463410e-06 -8.0441274080143243e-06 2.5535463585813327e-06  -1.1855477772038968e-05 -1.1544874709206349e-07 -2.2893081935335353e-06  1.5414679838096117e-04 -1.4917541782779375e-04 -4.3063241129539737e-03  1.1001659025317662e-04 5.2469648943408330e-05 -3.5470707616044430e-03  1.4526159784056154e-05 -1.3079275341765511e-05 7.8383546367030811e-07  4.3930760658553959e-06 5.4926645771608741e-06 -2.7304684118176983e-06  2.4268381353726221e-07 1.3768746524495639e-05 2.3404476424305001e-06  -8.8089107979810846e-05 9.4079514228443889e-05 -2.9518345320813278e-03  8.2228966171648681e-05 1.9558093545595217e-04 -3.8678233728708152e-03  6.3023659321270238e-05 -3.5182228292638282e-05 -2.5836652278794958e-03  -7.8391539696420111e-05 -2.3951776353633942e-05 -3.8957945131709759e-03  -1.5275685340161591e-04 -4.5341243106235411e-05 -3.3635911970256484e-03  -2.9362935106342586e-05 -3.9595421932326456e-05 -2.9913836698099291e-03  4.1188525721008257e-05 -8.3889514177206518e-05 -2.8077003561218527e-03  3.6931628169647215e-05 4.4001103317852355e-05 -4.1079152943622431e-03  8.7754428021723036e-07 7.3875790864142180e-05 -2.8787615611091362e-03  8.7066944958410112e-07 1.9077247156876349e-05 -4.6775489211950240e-03  2.2878128018249281e-05 5.1161530154217361e-05 -4.3863423293609921e-03  -7.0563313259206154e-05 7.5611460854148307e-06 -3.0481196778152069e-03  1.0104026787737673e-04 4.7855967947462886e-05 -4.8751222187811217e-03  -1.4934093763921351e-04 1.0197608327966841e-04 -4.4190660160519212e-03  -2.5288146075938230e-05 1.8519636698269490e-04 -2.2864094881699542e-03  2.9047960568184295e-05 1.2257605385521960e-04 -3.3461731029864709e-03  -3.0782600055853311e-05 -7.2921164796949878e-05 -3.6315306211991364e-03  -9.7061079892050994e-05 9.6526847091665019e-05 -3.0628003809441942e-03  -7.2839313227292152e-05 1.4683339931982497e-05 -4.5124307960637171e-03  6.3209341373376342e-05 3.8092798577660997e-05 -3.1935957453931786e-03  2.0627823721284838e-04 -7.7793573803889588e-06 -4.0057088685022287e-03  3.7510702630016390e-05 3.1556458865943674e-06 -3.6823522375003565e-03  3.6340384685631486e-06 1.4683006428330375e-05 -3.6629453932729918e-03  -4.8796284497972535e-07 -1.0414964083297014e-05 -2.2983744741512444e-07  -5.2603011466332145e-07 -9.6384839523618884e-06 4.4792773015068088e-06  8.1729263985360765e-06 3.0692488715646238e-06 7.7707869083078287e-07  -1.3868548159617263e-04 -7.8239048005672199e-05 -2.0000500448405516e-03  1.5218172035485147e-05 -1.5113081877413657e-05 7.2339235819999429e-06  -7.1967541777476330e-07 -9.6496154537512932e-07 -3.0697249738565264e-06  7.0231341207473582e-07 1.0943962911394844e-05 2.8192126994701982e-06  -1.1466973190466734e-05 -1.3649014584657070e-06 3.8892824301757832e-06  -5.2339090742261214e-05 -2.3539692919083974e-05 -3.7215930507780060e-03  1.1271300590024780e-04 6.2155784925512945e-06 -3.0003668821658083e-03  -4.1959757910357343e-04 2.0943822859667796e-04 -3.9950730890703258e-03  9.6844554116418450e-05 2.5534903569564738e-04 -3.7973392361564284e-03  1.3487392493856474e-04 2.4442372592706489e-05 -3.6309521567599512e-03  -1.4069260611416067e-04 1.7028759258304048e-04 -3.2528590306287420e-03  -2.1176495740627446e-04 -3.4854607622082878e-04 -3.3157670176555245e-03  -9.3989718995927647e-08 -2.3650302938328663e-07 -2.6643569694920476e-07  -9.8821958996578245e-07 -5.9757598318580718e-07 1.8860621456166506e-06  1.1302185817806352e-04 -1.0704442775122160e-04 -3.9796358385165848e-03  -1.3501550908419634e-04 2.4050364450903716e-04 -2.2962053786717120e-03  1.7788526047177423e-05 -1.4791362354247978e-04 -5.2511043863735750e-03  2.0806702995888184e-05 1.1398034440678301e-05 -4.1474882286988918e-03  -2.5374959814825847e-08 -3.8344182259923300e-06 5.1300163776708641e-06  -1.6072945592640078e-06 -8.4647549249212722e-06 -2.6693794633196613e-06  -3.3543457187589947e-06 9.9421539370756963e-06 -3.2870591786993417e-07  6.2473921972015724e-05 -1.0928625754544234e-04 -2.4204616640370069e-03  -1.1261803785506146e-04 -5.6431179558535835e-05 -2.9658646857782349e-03  8.0138671121816053e-06 -6.4619445953836114e-05 -3.7235304902848761e-03  -7.4116249905199026e-05 -5.5902789791614861e-05 -2.6957936065891532e-03  6.3370268234122954e-05 -2.3685319332796335e-05 -1.9556642264496765e-03  -1.9221485314396683e-05 -4.3296678342639797e-05 -4.8679548301860248e-03  4.0888123039962779e-05 -1.4382856417947112e-05 -4.0277040010149780e-03  1.2140034054335926e-05 4.6972088835682608e-05 -3.4970760614979912e-03  -7.7733159843767189e-06 -7.0422841766427867e-05 -2.1157310416817280e-03  2.5545896889510878e-05 -2.8358169147913327e-06 -4.0940970432926990e-03  7.8038159236640028e-05 2.0383923152044755e-05 -4.4064755015519970e-03  4.1321596198713167e-06 3.5874034727899650e-06 5.1628263026620789e-06  3.1593354245497190e-06 3.3235301761506895e-06 -4.5521363514268436e-07  3.4514587587233900e-04 -9.0943317895779484e-05 -2.2814147879627413e-03  -1.0083349083375453e-04 4.9831854357834497e-05 -5.6051789089021998e-03  -8.7769416360315355e-06 8.2862597678789348e-05 -3.5209984283607193e-03  1.3925050934865945e-05 4.7684067707026583e-05 -3.9252195747995584e-03  6.6671936129270339e-06 4.2132472525489964e-06 -4.1323126432581134e-03  6.0614374056034315e-06 -8.5733950585605558e-06 -3.0665930839583953e-06  2.7579813601172402e-06 7.0709778417109757e-07 7.1180467539438746e-07  7.2971482244119573e-05 -6.4277215984765020e-05 -3.0725518618946205e-03  5.8777732232470251e-05 8.3736982872400804e-05 -3.2861455201781808e-03  -8.1351805049560673e-06 -2.1493019165037469e-05 -3.0053647607383980e-03  -5.2292144134573112e-05 7.0059484300089874e-05 -3.3187628463472846e-03  2.6617424651474787e-06 -3.2486761352331258e-05 -3.9045671116909458e-03  8.9661896479102680e-07 1.9928514551733197e-06 -5.5599493537891633e-06  9.2210215351050359e-08 2.2317622089308448e-06 -2.2665683845157318e-06  -7.2180079172238019e-08 2.5112127926497554e-07 1.2773030545521445e-06  4.6136109935307047e-05 3.8915866517972206e-05 -4.6558044642691695e-03  2.9702851073584081e-06 3.7482195754482717e-05 -4.1877083936077255e-03  -2.2428623019728234e-06 5.9561736764498763e-05 -4.2856384499768843e-03  -1.1649168105011331e-05 7.1930588173889406e-05 -4.6410041784695905e-03  -4.1878675024515228e-05 -8.6695003882720503e-05 -4.9995118498777670e-03  -8.5894607189369396e-05 -4.8650749941415015e-05 -3.2444287266504930e-03  1.5905473781466038e-06 -3.5067292298775118e-05 -3.1061037910487884e-03  -1.2121202060450916e-06 1.0516167646707040e-05 5.8940664158256173e-06  -1.1111954485851543e-06 -4.3639800811106912e-06 -2.5893021865025231e-06  -2.5537525593631268e-04 -1.0591456654439868e-04 -3.2812854478586110e-03  1.1884465436450978e-04 -1.0713805017093136e-05 -2.6817369009820942e-03  -1.4673396384264281e-06 6.0505320100035187e-05 -2.2918615241660154e-03  1.1317968114539742e-04 -6.7086947902382402e-05 -3.1973809437795832e-03  -7.0916198711265917e-05 -1.1862729710509435e-04 -3.6410791254553668e-03  -1.5369859870129013e-05 -1.2607164176901543e-04 -3.5060268360290114e-03  1.0423792173278897e-04 -1.0656015146366112e-04 -4.2978349046402390e-03  -8.6231714953873226e-05 2.8219526159935633e-04 -3.0571118122774093e-03  -1.4723923020601407e-04 1.7318210674943649e-05 -2.2111515359154129e-03  1.5424845855332533e-05 -5.6672760811096923e-06 -3.6306028518094998e-03  1.6446728093231664e-06 6.2580542709397727e-05 -4.5789503308904427e-03  7.8329196536979401e-05 8.3365384253659041e-07 -4.1100584210239351e-03  -2.1827691114480911e-05 3.2118065579417175e-05 -3.3116909708321312e-03  -2.5423671599073773e-06 -4.8046476558646644e-05 -3.7827849890045796e-03  2.6448887378628872e-05 -5.6099399415711157e-05 -4.3997621226178158e-03  2.3845860791501632e-05 2.5330579847865950e-05 -4.3087929988733396e-03  -1.7155317340977726e-05 -2.1432606590388414e-05 -4.0424479134293055e-03  -4.2374320921698434e-05 -1.8736543073997456e-05 -3.9674745939721947e-03  9.2707829485728753e-05 5.5736284576651472e-05 -3.4771525540996627e-03  4.8996258788027835e-05 -1.4038385450673165e-05 -3.9590324996688327e-03  -1.1894501582570623e-04 -1.1823620256954352e-04 -4.3645943618702016e-03  1.5864742989758540e-05 -4.0117606756558770e-05 -4.6903317206417302e-03  1.9833243579690229e-05 -1.2177353788817351e-04 -4.8239884418845580e-03  -8.1425024194901088e-05 5.4809126173833483e-05 -2.8316991316819115e-03  1.3780942844737271e-05 -9.1544408121260274e-05 -4.0446698590644748e-03  -7.5010759139507483e-05 -5.6007363416163139e-06 -3.0815405566865009e-03  8.9792602895088423e-05 2.4791025492086025e-04 -4.1430338091726108e-03  -7.7408541716787857e-05 5.9693389271629700e-05 -1.5225023851289116e-03  1.6609389281199008e-04 -3.3013804071534462e-04 -5.0748897094810511e-03  7.4610925874436600e-05 2.3109215099837373e-04 -2.7813281517267852e-03  -6.7164313445310664e-05 -1.5952868829660604e-06 -3.2769577090705979e-03  1.5323786102428322e-05 4.1152729684174169e-05 -3.2193715617061555e-03  1.5584814406726248e-06 -6.0141776581280612e-06 -1.6286748636300252e-06  -1.1112244053974100e-06 -9.4727799080758109e-06 -3.3781450530057837e-06  3.0799301600486348e-07 1.0022850805395447e-05 8.5154892409769788e-07  1.6645821001035562e-04 -2.5200617955590198e-04 -4.9305198984430322e-03  -1.7928928375628352e-05 7.4961187291426985e-05 -3.1021520324746843e-03  7.4853569956122334e-05 5.4971041527402284e-05 -4.5535058470831469e-03  -1.7655235071002741e-04 1.0763280454394372e-04 -4.2430470839416980e-03  -4.1131738345700109e-04 -1.8903597184205081e-04 -4.3742009973140525e-03  1.2486883296768770e-04 -1.3949963414848228e-04 -3.9331533879250619e-03  8.6630825229581205e-06 1.0070074850668248e-04 -2.6519048437334712e-03  -9.6935040706043780e-05 -1.9090942624535391e-04 -3.8418105111033716e-03  -1.4324484605925201e-05 -1.3613660362634726e-04 -3.0646958649112690e-03  2.3773812452413281e-06 6.2794028806206505e-06 -4.8412811357982036e-06  -2.0216471622847585e-07 2.4811514931844009e-06 -3.0170968796050506e-06  9.2747949578523666e-05 1.2221589982584985e-04 -4.1892780823176269e-03  7.8359210169169943e-07 2.6789844343562101e-06 -1.6549162