<?xml version="1.0"?>
<VTKFile type="UnstructuredGrid"  version="0.1"  >
<UnstructuredGrid>
<Piece  NumberOfPoints="4166" NumberOfCells="19275">
<Points>
<DataArray  type="Float64"  NumberOfComponents="3"  format="ascii">0 0.12 0.4  0.1 0.12 0.4  0.0166666666667 0.12 0.4  0.0333333333333 0.12 0.4  0.05 0.12 0.4  0.0666666666667 0.12 0.4  0.08333333333329999 0.12 0.4  0 0.12 0  0 0.12 0.383333333333  0 0.12 0.366666666667  0 0.12 0.35  0 0.12 0.333333333333  0 0.12 0.316666666667  0 0.12 0.3  0 0.12 0.283333333333  0 0.12 0.266666666667  0 0.12 0.25  0 0.12 0.233333333333  0 0.12 0.216666666667  0 0.12 0.2  0 0.12 0.183333333333  0 0.12 0.166666666667  0 0.12 0.15  0 0.12 0.133333333333  0 0.12 0.116666666667  0 0.12 0.1  0 0.12 0.08333333333329999  0 0.12 0.0666666666667  0 0.12 0.05  0 0.12 0.0333333333333  0 0.12 0.0166666666667  0.1 0.12 0  0.08333333333329999 0.12 0  0.0666666666667 0.12 0  0.05 0.12 0  0.0333333333333 0.12 0  0.0166666666667 0.12 0  0.1 0.12 0.383333333333  0.1 0.12 0.366666666667  0.1 0.12 0.35  0.1 0.12 0.333333333333  0.1 0.12 0.316666666667  0.1 0.12 0.3  0.1 0.12 0.283333333333  0.1 0.12 0.266666666667  0.1 0.12 0.25  0.1 0.12 0.233333333333  0.1 0.12 0.216666666667  0.1 0.12 0.2  0.1 0.12 0.183333333333  0.1 0.12 0.166666666667  0.1 0.12 0.15  0.1 0.12 0.133333333333  0.1 0.12 0.116666666667  0.1 0.12 0.1  0.1 0.12 0.08333333333329999  0.1 0.12 0.0666666666667  0.1 0.12 0.05  0.1 0.12 0.0333333333333  0.1 0.12 0.0166666666667  0.0246516383636 0.12 0.386613425025  0.0413268775656 0.12 0.385308806289  0.0586831943268 0.12 0.385310525719  0.07540635632419999 0.12 0.386609466701  0.0137166360631 0.12 0.375692713199  0.0148755788664 0.12 0.358956796065  0.0145479186556 0.12 0.341902330061  0.0143619668144 0.12 0.325322087133  0.0144128108868 0.12 0.308713873501  0.0145037223176 0.12 0.291828506642  0.0144877299268 0.12 0.274817452156  0.0144168246706 0.12 0.257921851036  0.0143060471898 0.12 0.241242466268  0.0141796764718 0.12 0.224815355513  0.0142021058837 0.12 0.208503035868  0.0143000675272 0.12 0.192073761219  0.0143465967861 0.12 0.175497375001  0.0143618030552 0.12 0.158857708041  0.0143659828107 0.12 0.142198117496  0.0143670211173 0.12 0.125533157089  0.0143672624312 0.12 0.108866878944  0.0143673159389 0.12 0.0922002971334  0.0144312159805 0.12 0.0754657611951  0.014616698657 0.12 0.0585701279028  0.0147809345324 0.12 0.0413853734644  0.0135351459791 0.12 0.0246062312566  0.0775714565936 0.12 0.0153661215659  0.0592145373307 0.12 0.0155795670725  0.041349826971 0.12 0.0152013358498  0.0244724351344 0.12 0.0136968051325  0.08633643515260001 0.12 0.375724744609  0.0851035288472 0.12 0.359074827187  0.08519334901 0.12 0.341898065277  0.08534130774860001 0.12 0.324918268876  0.08559060626830001 0.12 0.308114603936  0.0858090869207 0.12 0.291574841729  0.08581744329429999 0.12 0.275156327239  0.0857085937847 0.12 0.258631541863  0.0855743513389 0.12 0.241939391009  0.0854433484846 0.12 0.225096243932  0.08545394391779999 0.12 0.208207019472  0.0855401231989 0.12 0.191406825994  0.08558454645830001 0.12 0.174695206279  0.08560009666020001 0.12 0.15801684025  0.0856046475094 0.12 0.141347565243  0.0856058459223 0.12 0.124680380163  0.0856061400962 0.12 0.108013620648  0.08561685720910001 0.12 0.09133562528600001  0.0857222266562 0.12 0.0747391837314  0.0857538704882 0.12 0.0583458683264  0.0855552313404 0.12 0.0420497883556  0.08653466220350001 0.12 0.027941683125  0.0110069882187 0.12 0.389127894311  0.089015224962 0.12 0.389133508929  0.010934849556 0.12 0.0109939406111  0.0311550259304 0.12 0.368908043423  0.0502651267092 0.12 0.370259881142  0.06909462285699999 0.12 0.369295381438  0.0287954315912 0.12 0.35007652733  0.0279733646978 0.12 0.334188870515  0.0284111109925 0.12 0.318123565483  0.0291740512085 0.12 0.300812659762  0.0293726995683 0.12 0.282845267111  0.0289413188795 0.12 0.265238370495  0.0284815445497 0.12 0.24832249213  0.0276721615546 0.12 0.232361042373  0.0275276216299 0.12 0.217157166301  0.0281219334532 0.12 0.201521877439  0.0284486640218 0.12 0.185176478671  0.0285702943884 0.12 0.168603516139  0.0286080445877 0.12 0.151963746148  0.0286185320544 0.12 0.135304547193  0.0286212324498 0.12 0.118639863715  0.0286218900789 0.12 0.101973700381  0.0287817686077 0.12 0.08513744448630001  0.0293692848233 0.12 0.0678275793459  0.0296205925058 0.12 0.0503063070349  0.030893013488 0.12 0.0312908072856  0.0695595315379 0.12 0.0325361247656  0.0499980255977 0.12 0.0306317677658  0.0702842128059 0.12 0.350397161786  0.0703851219818 0.12 0.332884900506  0.0712034691337 0.12 0.315578861818  0.072260311565 0.12 0.29929234824  0.0724914897366 0.12 0.283803033131  0.07188894058710001 0.12 0.267904079697  0.07133951879850001 0.12 0.25124487528  0.07056914218050001 0.12 0.233966447231  0.07040768065279999 0.12 0.216313288483  0.0709007392959 0.12 0.198982525255  0.0711551659241 0.12 0.182098528152  0.07125160666329999 0.12 0.165372881601  0.0712831176645 0.12 0.148692109155  0.0712924438995 0.12 0.132022444692  0.0712950094259 0.12 0.115355220671  0.0713347205382 0.12 0.0986469843771  0.0716585543857 0.12 0.0820443992127  0.07225653095490001 0.12 0.06614586180239999  0.0717292159215 0.12 0.0506281703552  0.043642015139 0.12 0.35497214785  0.0575164851755 0.12 0.357264156534  0.0392927520357 0.12 0.3417909067  0.0415264643682 0.12 0.328263761313  0.0431547917088 0.12 0.311176408932  0.0461082778277 0.12 0.291689653663  0.0439083073928 0.12 0.272272644142  0.0428815967316 0.12 0.254866590731  0.0414094538295 0.12 0.238220401534  0.038406865697 0.12 0.224861624187  0.0410799683452 0.12 0.211681773967  0.0422035546166 0.12 0.195414874255  0.0426207729694 0.12 0.178814747432  0.0427619863877 0.12 0.16216767129  0.0428058859968 0.12 0.145508481827  0.0428185678621 0.12 0.128844591145  0.04282201433 0.12 0.112178862516  0.0429613342654 0.12 0.0953654037  0.0436702771748 0.12 0.0781726297725  0.0457972739503 0.12 0.0595304864717  0.0425682714037 0.12 0.04351560217  0.0567283330237 0.12 0.0459524813529  0.0541273290862 0.12 0.341182751043  0.0563896253525 0.12 0.322417746953  0.0583573646233 0.12 0.305275566975  0.0615418455513 0.12 0.291579225092  0.0589061534084 0.12 0.278068082066  0.0575744254113 0.12 0.261392962263  0.0562725840113 0.12 0.244122736954  0.0534606213586 0.12 0.225055778517  0.0557993181662 0.12 0.20610541428  0.0566036353223 0.12 0.188977880131  0.0568985287896 0.12 0.172201035523  0.0570022899885 0.12 0.155508191975  0.0570364232167 0.12 0.138836046066  0.05704692494 0.12 0.122168511194  0.0571061694362 0.12 0.105442091527  0.0574938158265 0.12 0.08867048158800001  0.0585990220039 0.12 0.0722394325727  0.0610220751709 0.12 0.058899286511  0.1 0.12 0.5  0.1 0.22 0.5  0.1 0.136666666667 0.5  0.1 0.153333333333 0.5  0.1 0.17 0.5  0.1 0.186666666667 0.5  0.1 0.203333333333 0.5  0 0.22 0.5  0.08333333333329999 0.22 0.5  0.0666666666667 0.22 0.5  0.05 0.22 0.5  0.0333333333333 0.22 0.5  0.0166666666667 0.22 0.5  0 0.12 0.5  0 0.203333333333 0.5  0 0.186666666667 0.5  0 0.17 0.5  0 0.153333333333 0.5  0 0.136666666667 0.5  0.0166666666667 0.12 0.5  0.0333333333333 0.12 0.5  0.05 0.12 0.5  0.0666666666667 0.12 0.5  0.08333333333329999 0.12 0.5  0.0847384649374 0.142315238633 0.5  0.0847027491802 0.160371461446 0.5  0.0850623928571 0.178113564769 0.5  0.08647273690640001 0.195168861529 0.5  0.075614286243 0.206163859834 0.5  0.0588936636364 0.204864027263 0.5  0.0414566443786 0.205031536265 0.5  0.0246588419623 0.20647293652 0.5  0.0137128827013 0.195608284823 0.5  0.0150042330724 0.178911219885 0.5  0.0149822959939 0.161474752626 0.5  0.0136092193964 0.144618119736 0.5  0.0244929317084 0.133637555227 0.5  0.0412081579956 0.134806920222 0.5  0.0580736728397 0.13459136614 0.5  0.0722056928305 0.133378634582 0.5  0.08908407129650001 0.208933210939 0.5  0.0110076782661 0.209082910935 0.5  0.0109537635543 0.130984468326 0.5  0.0682778793446 0.149980520653 0.5  0.0701144129721 0.168781290602 0.5  0.0688607945511 0.188247736091 0.5  0.0497643557312 0.189945479483 0.5  0.0309909714387 0.18913790118 0.5  0.0298517191743 0.170416098384 0.5  0.0312688705338 0.151193990551 0.5  0.0502057746559 0.149323843993 0.5  0.0577794439236 0.161404280118 0.5  0.055570460971 0.175016128641 0.5  0.0421468767397 0.17772447891 0.5  0.0444705243331 0.164179803433 0.5  0.1 0.22 0  0.1 0.203333333333 0  0.1 0.186666666667 0  0.1 0.17 0  0.1 0.153333333333 0  0.1 0.136666666667 0  0 0.22 0  0 0.136666666667 0  0 0.153333333333 0  0 0.17 0  0 0.186666666667 0  0 0.203333333333 0  0.0166666666667 0.22 0  0.0333333333333 0.22 0  0.05 0.22 0  0.0666666666667 0.22 0  0.08333333333329999 0.22 0  0.0847384649374 0.197684761367 0  0.0847027491802 0.179628538554 0  0.0850623928571 0.161886435231 0  0.08647273690640001 0.144831138471 0  0.075614286243 0.133836140166 0  0.0588936636364 0.135135972737 0  0.0414566443786 0.134968463735 0  0.0246588419623 0.13352706348 0  0.0137128827013 0.144391715177 0  0.0150042330724 0.161088780115 0  0.0149822959939 0.178525247374 0  0.0136092193964 0.195381880264 0  0.0244929317084 0.206362444773 0  0.0412081579956 0.205193079778 0  0.0580736728397 0.20540863386 0  0.0722056928305 0.206621365418 0  0.08908407129650001 0.131066789061 0  0.0110076782661 0.130917089065 0  0.0109537635543 0.209015531674 0  0.0682778793446 0.190019479347 0  0.0701144129721 0.171218709398 0  0.0688607945511 0.151752263909 0  0.0497643557312 0.150054520517 0  0.0309909714387 0.15086209882 0  0.0298517191743 0.169583901616 0  0.0312688705338 0.188806009449 0  0.0502057746559 0.190676156007 0  0.0577794439236 0.178595719882 0  0.055570460971 0.164983871359 0  0.0421468767397 0.16227552109 0  0.0444705243331 0.175820196567 0  0.1 0.12 0.483333333333  0.1 0.12 0.466666666667  0.1 0.12 0.45  0.1 0.12 0.433333333333  0.1 0.12 0.416666666667  0 0.12 0.483333333333  0 0.12 0.466666666667  0 0.12 0.45  0 0.12 0.433333333333  0 0.12 0.416666666667  0.0847093131164 0.12 0.477670113959  0.084598881736 0.12 0.459541
[...]
<PointData  Vectors="f_55"> 
<DataArray  type="Float64"  Name="f_55"  NumberOfComponents="3" format="ascii">0.0000000000000000e+00 0.0000000000000000e+00 0.0000000000000000e+00  0.0000000000000000e+00 0.0000000000000000e+00 0.0000000000000000e+00  0.0000000000000000e+00 0.0000000000000000e+00 0.0000000000000000e+00  0.0000000000000000e+00 0.0000000000000000e+00 0.0000000000000000e+00  0.0000000000000000e+00 0.0000000000000000e+00 0.0000000000000000e+00  0.0000000000000000e+00 0.0000000000000000e+00 0.0000000000000000e+00  0.0000000000000000e+00 0.0000000000000000e+00 0.0000000000000000e+00  0.0000000000000000e+00 0.0000000000000000e+00 0.0000000000000000e+00  0.0000000000000000e+00 0.0000000000000000e+00 0.0000000000000000e+00  0.0000000000000000e+00 0.0000000000000000e+00 0.0000000000000000e+00  0.0000000000000000e+00 0.0000000000000000e+00 0.0000000000000000e+00  0.0000000000000000e+00 0.0000000000000000e+00 0.0000000000000000e+00  0.0000000000000000e+00 0.0000000000000000e+00 0.0000000000000000e+00  0.0000000000000000e+00 0.0000000000000000e+00 0.0000000000000000e+00  0.0000000000000000e+00 0.0000000000000000e+00 0.0000000000000000e+00  0.0000000000000000e+00 0.0000000000000000e+00 0.0000000000000000e+00  0.0000000000000000e+00 0.0000000000000000e+00 0.0000000000000000e+00  0.0000000000000000e+00 0.0000000000000000e+00 0.0000000000000000e+00  0.0000000000000000e+00 0.0000000000000000e+00 0.0000000000000000e+00  0.0000000000000000e+00 0.0000000000000000e+00 0.0000000000000000e+00  0.0000000000000000e+00 0.0000000000000000e+00 0.0000000000000000e+00  0.0000000000000000e+00 0.0000000000000000e+00 0.0000000000000000e+00  0.0000000000000000e+00 0.0000000000000000e+00 0.0000000000000000e+00  0.0000000000000000e+00 0.0000000000000000e+00 0.0000000000000000e+00  0.0000000000000000e+00 0.0000000000000000e+00 0.0000000000000000e+00  0.0000000000000000e+00 0.0000000000000000e+00 0.0000000000000000e+00  0.0000000000000000e+00 0.0000000000000000e+00 0.0000000000000000e+00  0.0000000000000000e+00 0.0000000000000000e+00 0.0000000000000000e+00  0.0000000000000000e+00 0.0000000000000000e+00 0.0000000000000000e+00  0.0000000000000000e+00 0.0000000000000000e+00 0.0000000000000000e+00  0.0000000000000000e+00 0.0000000000000000e+00 0.0000000000000000e+00  0.0000000000000000e+00 0.0000000000000000e+00 0.0000000000000000e+00  0.0000000000000000e+00 0.0000000000000000e+00 0.0000000000000000e+00  0.0000000000000000e+00 0.0000000000000000e+00 0.0000000000000000e+00  0.0000000000000000e+00 0.0000000000000000e+00 0.0000000000000000e+00  0.0000000000000000e+00 0.0000000000000000e+00 0.0000000000000000e+00  0.0000000000000000e+00 0.0000000000000000e+00 0.0000000000000000e+00  0.0000000000000000e+00 0.0000000000000000e+00 0.0000000000000000e+00  0.0000000000000000e+00 0.0000000000000000e+00 0.0000000000000000e+00  0.0000000000000000e+00 0.0000000000000000e+00 0.0000000000000000e+00  0.0000000000000000e+00 0.0000000000000000e+00 0.0000000000000000e+00  0.0000000000000000e+00 0.0000000000000000e+00 0.0000000000000000e+00  0.0000000000000000e+00 0.0000000000000000e+00 0.0000000000000000e+00  0.0000000000000000e+00 0.0000000000000000e+00 0.0000000000000000e+00  0.0000000000000000e+00 0.0000000000000000e+00 0.0000000000000000e+00  0.0000000000000000e+00 0.0000000000000000e+00 0.0000000000000000e+00  0.0000000000000000e+00 0.0000000000000000e+00 0.0000000000000000e+00  0.0000000000000000e+00 0.0000000000000000e+00 0.0000000000000000e+00  0.0000000000000000e+00 0.0000000000000000e+00 0.0000000000000000e+00  0.0000000000000000e+00 0.0000000000000000e+00 0.0000000000000000e+00  0.0000000000000000e+00 0.0000000000000000e+00 0.0000000000000000e+00  0.0000000000000000e+00 0.0000000000000000e+00 0.0000000000000000e+00  0.0000000000000000e+00 0.0000000000000000e+00 0.0000000000000000e+00  0.0000000000000000e+00 0.0000000000000000e+00 0.0000000000000000e+00  0.0000000000000000e+00 0.0000000000000000e+00 0.0000000000000000e+00  0.0000000000000000e+00 0.0000000000000000e+00 0.0000000000000000e+00  0.0000000000000000e+00 0.0000000000000000e+00 0.0000000000000000e+00  0.0000000000000000e+00 0.0000000000000000e+00 0.0000000000000000e+00  0.0000000000000000e+00 0.0000000000000000e+00 0.0000000000000000e+00  0.0000000000000000e+00 0.0000000000000000e+00 0.0000000000000000e+00  0.0000000000000000e+00 0.0000000000000000e+00 0.0000000000000000e+00  0.0000000000000000e+00 0.0000000000000000e+00 0.0000000000000000e+00  0.0000000000000000e+00 0.0000000000000000e+00 0.0000000000000000e+00  0.0000000000000000e+00 0.0000000000000000e+00 0.0000000000000000e+00  0.0000000000000000e+00 0.0000000000000000e+00 0.0000000000000000e+00  0.0000000000000000e+00 0.0000000000000000e+00 0.0000000000000000e+00  0.0000000000000000e+00 0.0000000000000000e+00 0.0000000000000000e+00  0.0000000000000000e+00 0.0000000000000000e+00 0.0000000000000000e+00  0.0000000000000000e+00 0.0000000000000000e+00 0.0000000000000000e+00  0.0000000000000000e+00 0.0000000000000000e+00 0.0000000000000000e+00  0.0000000000000000e+00 0.0000000000000000e+00 0.0000000000000000e+00  0.0000000000000000e+00 0.0000000000000000e+00 0.0000000000000000e+00  0.0000000000000000e+00 0.0000000000000000e+00 0.0000000000000000e+00  0.0000000000000000e+00 0.0000000000000000e+00 0.0000000000000000e+00  0.0000000000000000e+00 0.0000000000000000e+00 0.0000000000000000e+00  0.0000000000000000e+00 0.0000000000000000e+00 0.0000000000000000e+00  0.0000000000000000e+00 0.0000000000000000e+00 0.0000000000000000e+00  0.0000000000000000e+00 0.0000000000000000e+00 0.0000000000000000e+00  0.0000000000000000e+00 0.0000000000000000e+00 0.0000000000000000e+00  0.0000000000000000e+00 0.0000000000000000e+00 0.0000000000000000e+00  0.0000000000000000e+00 0.0000000000000000e+00 0.0000000000000000e+00  0.0000000000000000e+00 0.0000000000000000e+00 0.0000000000000000e+00  0.0000000000000000e+00 0.0000000000000000e+00 0.0000000000000000e+00  0.0000000000000000e+00 0.0000000000000000e+00 0.0000000000000000e+00  0.0000000000000000e+00 0.0000000000000000e+00 0.0000000000000000e+00  0.0000000000000000e+00 0.0000000000000000e+00 0.0000000000000000e+00  0.0000000000000000e+00 0.0000000000000000e+00 0.0000000000000000e+00  0.0000000000000000e+00 0.0000000000000000e+00 0.0000000000000000e+00  0.0000000000000000e+00 0.0000000000000000e+00 0.0000000000000000e+00  0.0000000000000000e+00 0.0000000000000000e+00 0.0000000000000000e+00  0.0000000000000000e+00 0.0000000000000000e+00 0.0000000000000000e+00  0.0000000000000000e+00 0.0000000000000000e+00 0.0000000000000000e+00  0.0000000000000000e+00 0.0000000000000000e+00 0.0000000000000000e+00  0.0000000000000000e+00 0.0000000000000000e+00 0.0000000000000000e+00  0.0000000000000000e+00 0.0000000000000000e+00 0.0000000000000000e+00  0.0000000000000000e+00 0.0000000000000000e+00 0.0000000000000000e+00  0.0000000000000000e+00 0.0000000000000000e+00 0.0000000000000000e+00  0.0000000000000000e+00 0.0000000000000000e+00 0.0000000000000000e+00  0.0000000000000000e+00 0.0000000000000000e+00 0.0000000000000000e+00  0.0000000000000000e+00 0.0000000000000000e+00 0.0000000000000000e+00  0.0000000000000000e+00 0.0000000000000000e+00 0.0000000000000000e+00  0.0000000000000000e+00 0.0000000000000000e+00 0.0000000000000000e+00  0.0000000000000000e+00 0.0000000000000000e+00 0.0000000000000000e+00  0.0000000000000000e+00 0.0000000000000000e+00 0.0000000000000000e+00  0.0000000000000000e+00 0.0000000000000000e+00 0.0000000000000000e+00  0.0000000000000000e+00 0.0000000000000000e+00 0.0000000000000000e+00  0.0000000000000000e+00 0.0000000000000000e+00 0.0000000000000000e+00  0.0000000000000000e+00 0.0000000000000000e+00 0.0000000000000000e+00  0.0000000000000000e+00 0.0000000000000000e+00 0.0000000000000000e+00  0.0000000000000000e+00 0.0000000000000000e+00 0.0000000000000000e+00  0.0000000000000000e+00 0.0000000000000000e+00 0.0000000000000000e+00  0.0000000000000000e+00 0.0000000000000000e+00 0.0000000000000000e+00  0.0000000000000000e+00 0.0000000000000000e+00 0.0000000000000000e+00  0.0000000000000000e+00 0.0000000000000000e+00 0.0000000000000000e+00  0.0000000000000000e+00 0.0000000000000000e+00 0.0000000000000000e+00  0.0000000000000000e+00 0.0000000000000000e+00 0.0000000000000000e+00  0.0000000000000000e+00 0.0000000000000000e+00 0.0000000000000000e+00  0.0000000000000000e+00 0.0000000000000000e+00 0.0000000000000000e+00  0.0000000000000000e+00 0.0000000000000000e+00 0.0000000000000000e+00  0.0000000000000000e+00 0.0000000000000000e+00 0.0000000000000000e+00  0.0000000000000000e+00 0.0000000000000000e+00 0.0000000000000000e+00  0.0000000000000000e+00 0.0000000000000000e+00 0.0000000000000000e+00  0.0000000000000000e+00 0.0000000000000000e+00 0.0000000000000000e+00  0.0000000000000000e+00 0.0000000000000000e+00 0.0000000000000000e+00  0.0000000000000000e+00 0.0000000000000000e+00 0.0000000000000000e+00  0.0000000000000000e+00 0.0000000000000000e+00 0.0000000000000000e+00  0.0000000000000000e+00 0.0000000000000000e+00 0.0000000000000000e+00  0.0000000000000000e+00 0.0000000000000000e+00 0.0000000000000000e+00  0.0000000000000000e+00 0.0000000000000000e+00 0.0000000000000000e+00  0.0000000000000000e+00 0.0000000000000000e+00 0.0000000000000000e+00  0.0000000000000000e+00 0.0000000000000000e+00 0.0000000000000000e+00  0.0000000000000000e+00 0.0000000000000000e+00 0.0000000000000000e+00  0.0000000000000000e+00 0.0000000000000000e+00 0.0000000000000000e+00  0.0000000000000000e+00 0.0000000000000000e+00 0.0000000000000000e+00  0.0000000000000000e+00 0.0000000000000000e+00 0.0000000000000000e+00  0.0000000000000000e+00 0.0000000000000000e+00 0.0000000000000000e+00  0.0000000000000000e+00 0.0000000000000000e+00 0.0000000000000000e+00  0.0000000000000000e+00 0.0000000000000000e+00 0.0000000000000000e+00  0.0000000000000000e+00 0.0000000000000000e+00 0.0000000000000000e+00  0.0000000000000000e+00 0.0000000000000000e+00 0.0000000000000000e+00  0.0000000000000000e+00 0.0000000000000000e+00 0.0000000000000000e+00  0.0000000000000000e+00 0.0000000000000000e+00 0.0000000000000000e+00  0.0000000000000000e+00 0.0000000000000000e+00 0.0000000000000000e+00  0.0000000000000000e+00 0.0000000000000000e+00 0.0000000000000000e+00  0.0000000000000000e+00 0.0000000000000000e+00 0.0000000000000000e+00  0.0000000000000000e+00 0.0000000000000000e+00 0.0000000000000000e+00  0.0000000000000000e+00 0.0000000000000000e+00 0.0000000000000000e+00  0.0000000000000000e+00 0.0000000000000000e+00 0.0000000000000000e+00  0.0000000000000000e+00 0.0000000000000000e+00 0.0000000000000000e+00  0.0000000000000000e+00 0.0000000000000000e+00 0.0000000000000000e+00  0.0000000000000000e+00 0.0000000000000000e+00 0.0000000000000000e+00  0.0000000000000000e+00 0.0000000000000000e+00 0.0000000000000000e+00  0.0000000000000000e+00 0.0000000000000000e+00 0.0000000000000000e+00  0.0000000000000000e+00 0.0000000000000000e+00 0.0000000000000000e+00  0.0000000000000000e+00 0.0000000000000000e+00 0.0000000000000000e+00  0.0000000000000000e+00 0.0000000000000000e+00 0.0000000000000000e+00  0.0000000000000000e+00 0.0000000000000000e+00 0.0000000000000000e+00  0.0000000000000000e+00 0.0000000000000000e+00 0.0000000000000000e+00  0.0000000000000000e+00 0.0000000000000000e+00 0.0000000000000000e+00  0.0000000000000000e+00 0.0000000000000000e+00 0.0000000000000000e+00  0.0000000000000000e+00 0.0000000000000000e+00 0.0000000000000000e+00  0.0000000000000000e+00 0.0000000000000000e+00 0.0000000000000000e+00  0.0000000000000000e+00 0.0000000000000000e+00 0.0000000000000000e+00  0.0000000000000000e+00 0.0000000000000000e+00 0.0000000000000000e+00  0.0000000000000000e+00 0.0000000000000000e+00 0.0000000000000000e+00  0.0000000000000000e+00 0.0000000000000000e+00 0.0000000000000000e+00  0.0000000000000000e+00 0.0000000000000000e+00 0.0000000000000000e+00  0.0000000000000000e+00 0.0000000000000000e+00 0.0000000000000000e+00  0.0000000000000000e+00 0.0000000000000000e+00 0.0000000000000000e+00  0.0000000000000000e+00 0.0000000000000000e+00 0.0000000000000000e+00  0.0000000000000000e+00 0.0000000000000000e+00 0.0000000000000000e+00  0.0000000000000000e+00 0.0000000000000000e+00 0.0000000000000000e+00  0.0000000000000000e+00 0.0000000000000000e+00 0.0000000000000000e+00  0.0000000000000000e+00 0.0000000000000000e+00 0.0000000000000000e+00  0.0000000000000000e+00 0.0000000000000000e+00 0.0000000000000000e+00  0.0000000000000000e+00 0.0000000000000000e+00 0.0000000000000000e+00  0.0000000000000000e+00 0.0000000000000000e+00 0.0000000000000000e+00  0.0000000000000000e+00 0.0000000000000000e+00 0.0000000000000000e+00  0.0000000000000000e+00 0.0000000000000000e+00 0.0000000000000000e+00  0.0000000000000000e+00 0.0000000000000000e+00 0.0000000000000000e+00  0.0000000000000000e+00 0.0000000000000000e+00 0.0000000000000000e+00  0.0000000000000000e+00 0.0000000000000000e+00 0.0000000000000000e+00  0.0000000000000000e+00 0.0000000000000000e+00 0.0000000000000000e+00  0.0000000000000000e+00 0.0000000000000000e+00 0.0000000000000000e+00  0.0000000000000000e+00 0.0000000000000000e+00 0.0000000000000000e+00  0.0000000000000000e+00 0.0000000000000000e+00 0.0000000000000000e+00  0.0000000000000000e+00 0.0000000000000000e+00 0.0000000000000000e+00  0.0000000000000000e+00 0.0000000000000000e+00 0.0000000000000000e+00  0.0000000000000000e+00 0.0000000000000000e+00 0.0000000000000000e+00  0.0000000000000000e+00 0.0000000000000000e+00 0.0000000000000000e+00  0.0000000000000000e+00 0.0000000000000000e+00 0.0000000000000000e+00  0.0000000000000000e+00 0.0000000000000000e+00 0.0000000000000000e+00  0.0000000000000000e+00 0.0000000000000000e+00 0.0000000000000000e+00  0.0000000000000000e+00 0.0000000000000000e+00 0.0000000000000000e+00  0.0000000000000000e+00 0.0000000000000000e+00 0.0000000000000000e+00  0.0000000000000000e+00 0.0000000000000000e+00 0.0000000000000000e+00  0.0000000000000000e+00 0.0000000000000000e+00 0.0000000000000000e+00  0.0000000000000000e+00 0.0000000000000000e+00 0.0000000000000000e+00  0.0000000000000000e+00 0.0000000000000000e+00 0.0000000000000000e+00  0.0000000000000000e+00 0.0000000000000000e+00 0.0000000000000000e+00  0.0000000000000000e+00 0.0000000000000000e+00 0.0000000000000000e+00  0.0000000000000000e+00 0.0000000000000000e+00 0.0000000000000000e+00  0.0000000000000000e+00 0.0000000000000000e+00 0.0000000000000000e+00  0.0000000000000000e+00 0.0000000000000000e+00 0.0000000000000000e+00  0.0000000000000000e+00 0.0000000000000000e+00 0.0000000000000000e+00  0.0000000000000000e+00 0.0000000000000000e+00 0.0000000000000000e+00  0.0000000000000000e+00 0.0000000000000000e+00 0.0000000000000000e+00  0.0000000000000000e+00 0.0000000000000000e+00 0.0000000000000000e+00  0.0000000000000000e+00 0.0000000000000000e+00 0.0000000000000000e+00  0.0000000000000000e+00 0.0000000000000000e+00 0.0000000000000000e+00  0.0000000000000000e+00 0.0000000000000000e+00 0.0000000000000000e+00  0.0000000000000000e+00 0.0000000000000000e+00 0.0000000000000000e+00  0.0000000000000000e+00 0.0000000000000000e+00 0.0000000000000000e+00  0.0000000000000000e+00 0.0000000000000000e+00 0.0000000000000000e+00  0.0000000000000000e+00 0.0000000000000000e+00 0.0000000000000000e+00  0.0000000000000000e+00 0.0000000000000000e+00 0.0000000000000000e+00  0.0000000000000000e+00 0.0000000000000000e+00 0.0000000000000000e+00  0.0000000000000000e+00 0.0000000000000000e+00 0.0000000000000000e+00  0.0000000000000000e+00 0.0000000000000000e+00 0.0000000000000000e+00  0.0000000000000000e+00 0.0000000000000000e+00 0.0000000000000000e+00  0.0000000000000000e+00 0.0000000000000000e+00 0.0000000000000000e+00  0.0000000000000000e+00 0.0000000000000000e+00 0.0000000000000000e+00  0.0000000000000000e+00 0.0000000000000000e+00 0.0000000000000000e+00  0.0000000000000000e+00 0.0000000000000000e+00 0.0000000000000000e+00  0.0000000000000000e+00 0.0000000000000000e+00 0.0000000000000000e+00  0.0000000000000000e+00 0.0000000000000000e+00 0.0000000000000000e+00  0.0000000000000000e+00 0.0000000000000000e+00 0.0000000000000000e+00  0.0000000000000000e+00 0.0000000000000000e+00 0.0000000000000000e+00  0.0000000000000000e+00 0.0000000000000000e+00 0.0000000000000000e+00  0.0000000000000000e+00 0.0000000000000000e+00 0.0000000000000000e+00  0.0000000000000000e+00 0.0000000000000000e+00 0.0000000000000000e+00  0.0000000000000000e+00 0.0000000000000000e+00 0.0000000000000000e+00  0.0000000000000000e+00 0.0000000000000000e+00 0.0000000000000000e+00  0.0000000000000000e+00 0.0000000000000000e+00 0.0000000000000000e+00  0.0000000000000000e+00 0.0000000000000000e+00 0.0000000000000000e+00  0.0000000000000000e+00 0.0000000000000000e+00 0.0000000000000000e+00  0.0000000000000000e+00 0.0000000000000000e+00 0.0000000000000000e+00  0.0000000000000000e+00 0.0000000000000000e+00 0.0000000000000000e+00  0.0000000000000000e+00 0.0000000000000000e+00 0.0000000000000000e+00  0.0000000000000000e+00 0.0000000000000000e+00 0.0000000000000000e+00  0.0000000000000000e+00 0.0000000000000000e+00 0.0000000000000000e+00  0.0000000000000000e+00 0.0000000000000000e+00 0.0000000000000000e+00  0.0000000000000000e+00 0.0000000000000000e+00 0.0000000000000000e+00  0.0000000000000000e+00 0.0000000000000000e+00 0.0000000000000000e+00  0.0000000000000000e+00 0.0000000000000000e+00 0.0000000000000000e+00  0.0000000000000000e+00 0.0000000000000000e+00 0.0000000000000000e+00  0.0000000000000000e+00 0.0000000000000000e+00 0.0000000000000000e+00  0.0000000000000000e+00 0.0000000000000000e+00 0.0000000000000000e+00  0.0000000000000000e+00 0.0000000000000000e+00 0.0000000000000000e+00  0.0000000000000000e+00 0.0000000000000000e+00 0.0000000000000000e+00  0.0000000000000000e+00 0.0000000000000000e+00 0.0000000000000000e+00  0.0000000000000000e+00 0.0000000000000000e+00 0.0000000000000000e+00  0.0000000000000000e+00 0.0000000000000000e+00 0.0000000000000000e+00  0.0000000000000000e+00 0.0000000000000000e+00 0.0000000000000000e+00  0.0000000000000000e+00 0.0000000000000000e+00 0.0000000000000000e+00  0.0000000000000000e+00 0.0000000000000000e+00 0.0000000000000000e+00  0.0000000000000000e+00 0.0000000000000000e+00 0.0000000000000000e+00  0.0000000000000000e+00 0.0000000000000000e+00 0.0000000000000000e+00  0.0000000000000000e+00 0.0000000000000000e+00 0.0000000000000000e+00  0.0000000000000000e+00 0.0000000000000000e+00 0.0000000000000000e+00  0.0000000000000000e+00 0.0000000000000000e+00 0.0000000000000000e+00  0.0000000000000000e+00 0.0000000000000000e+00 0.0000000000000000e+00  0.0000000000000000e+00 0.0000000000000000e+00 0.0000000000000000e+00  0.0000000000000000e+00 0.0000000000000000e+00 0.0000000000000000e+00  0.0000000000000000e+00 0.0000000000000000e+00 0.0000000000000000e+00  0.0000000000000000e+00 0.0000000000000000e+00 0.0000000000000000e+00  0.0000000000000000e+00 0.0000000000000000e+00 0.0000000000000000e+00  0.0000000000000000e+00 0.0000000000000000e+00 0.0000000000000000e+00  0.0000000000000000e+00 0.0000000000000000e+00 0.0000000000000000e+00  0.0000000000000000e+00 0.0000000000000000e+00 0.0000000000000000e+00  0.0000000000000000e+00 0.0000000000000000e+00 0.0000000000000000e+00  2.1742367272078519e-05 1.0542609420051326e-06 2.9959779921175445e-01  8.7712691732259783e-06 -5.3665106552117095e-06 3.7234378020454378e-01  -7.3030983628299426e-06 2.0962974040485266e-06 3.7054029761795004e-01  -2.5797752963686353e-05 3.7560525967145976e-05 2.9631375795563852e-01  -3.6488556216885369e-05 1.4558544336262461e-05 2.9293894417158006e-01  -1.7097905929863396e-05 8.1488736499464260e-06 3.6993342352132780e-01  -5.2946657307980349e-06 1.5079395830761878e-05 3.7077676259247883e-01  3.2536318892448528e-05 1.6430001442232571e-05 2.9102389482892338e-01  1.4565776472027019e-05 3.1767864811449885e-05 2.9394629353496010e-01  8.9518121186665215e-06 -1.7861293265640208e-06 3.7144003471248704e-01  1.7376673654134768e-06 -6.2765312788763165e-05 3.7002515633667993e-01  1.7082966667755960e-05 -1.0893013074956833e-04 2.8918327218648671e-01  3.4415100623030140e-05 -6.2854563686264324e-05 2.7704090611181004e-01  2.