<?xml version="1.0"?>
<VTKFile type="UnstructuredGrid"  version="0.1"  >
<UnstructuredGrid>
<Piece  NumberOfPoints="539" NumberOfCells="2160">
<Points>
<DataArray  type="Float64"  NumberOfComponents="3"  format="ascii">0 0.2 0.2  0.1 0.2 0.2  0.1 0.3 0.2  0.1 0.3 0.3  0.1 0.2 0.3  0 0.2 0.3  0 0.3 0.2  0 0.3 0.3  0.2 0.2 0.2  0.2 0.3 0.2  0.2 0.3 0.3  0.2 0.2 0.3  0.3 0.2 0.2  0.3 0.3 0.2  0.3 0.3 0.3  0.3 0.2 0.3  0.4 0.2 0.2  0.4 0.3 0.2  0.4 0.3 0.3  0.4 0.2 0.3  0.5 0.2 0.2  0.5 0.3 0.2  0.5 0.3 0.3  0.5 0.2 0.3  0.6 0.2 0.2  0.6 0.3 0.2  0.6 0.3 0.3  0.6 0.2 0.3  0.7 0.2 0.2  0.7 0.3 0.2  0.7 0.3 0.3  0.7 0.2 0.3  0.8 0.2 0.2  0.8 0.3 0.2  0.8 0.3 0.3  0.8 0.2 0.3  0.9 0.2 0.2  0.9 0.3 0.2  0.9 0.3 0.3  0.9 0.2 0.3  1 0.2 0.2  1 0.3 0.2  1 0.3 0.3  1 0.2 0.3  0.1 0.4 0.2  0.1 0.4 0.3  0 0.4 0.2  0 0.4 0.3  0.2 0.4 0.2  0.2 0.4 0.3  0.3 0.4 0.2  0.3 0.4 0.3  0.4 0.4 0.2  0.4 0.4 0.3  0.5 0.4 0.2  0.5 0.4 0.3  0.6 0.4 0.2  0.6 0.4 0.3  0.7 0.4 0.2  0.7 0.4 0.3  0.8 0.4 0.2  0.8 0.4 0.3  0.9 0.4 0.2  0.9 0.4 0.3  1 0.4 0.2  1 0.4 0.3  0.1 0.5 0.2  0.1 0.5 0.3  0 0.5 0.2  0 0.5 0.3  0.2 0.5 0.2  0.2 0.5 0.3  0.3 0.5 0.2  0.3 0.5 0.3  0.4 0.5 0.2  0.4 0.5 0.3  0.5 0.5 0.2  0.5 0.5 0.3  0.6 0.5 0.2  0.6 0.5 0.3  0.7 0.5 0.2  0.7 0.5 0.3  0.8 0.5 0.2  0.8 0.5 0.3  0.9 0.5 0.2  0.9 0.5 0.3  1 0.5 0.2  1 0.5 0.3  0.1 0.6 0.2  0.1 0.6 0.3  0 0.6 0.2  0 0.6 0.3  0.2 0.6 0.2  0.2 0.6 0.3  0.3 0.6 0.2  0.3 0.6 0.3  0.4 0.6 0.2  0.4 0.6 0.3  0.5 0.6 0.2  0.5 0.6 0.3  0.6 0.6 0.2  0.6 0.6 0.3  0.7 0.6 0.2  0.7 0.6 0.3  0.8 0.6 0.2  0.8 0.6 0.3  0.9 0.6 0.2  0.9 0.6 0.3  1 0.6 0.2  1 0.6 0.3  0.1 0.7 0.2  0.1 0.7 0.3  0 0.7 0.2  0 0.7 0.3  0.2 0.7 0.2  0.2 0.7 0.3  0.3 0.7 0.2  0.3 0.7 0.3  0.4 0.7 0.2  0.4 0.7 0.3  0.5 0.7 0.2  0.5 0.7 0.3  0.6 0.7 0.2  0.6 0.7 0.3  0.7 0.7 0.2  0.7 0.7 0.3  0.8 0.7 0.2  0.8 0.7 0.3  0.9 0.7 0.2  0.9 0.7 0.3  1 0.7 0.2  1 0.7 0.3  0.1 0.8 0.2  0.1 0.8 0.3  0 0.8 0.2  0 0.8 0.3  0.2 0.8 0.2  0.2 0.8 0.3  0.3 0.8 0.2  0.3 0.8 0.3  0.4 0.8 0.2  0.4 0.8 0.3  0.5 0.8 0.2  0.5 0.8 0.3  0.6 0.8 0.2  0.6 0.8 0.3  0.7 0.8 0.2  0.7 0.8 0.3  0.8 0.8 0.2  0.8 0.8 0.3  0.9 0.8 0.2  0.9 0.8 0.3  1 0.8 0.2  1 0.8 0.3  0.1 0.3 0.4  0.1 0.2 0.4  0 0.2 0.4  0 0.3 0.4  0.2 0.3 0.4  0.2 0.2 0.4  0.3 0.3 0.4  0.3 0.2 0.4  0.4 0.3 0.4  0.4 0.2 0.4  0.5 0.3 0.4  0.5 0.2 0.4  0.6 0.3 0.4  0.6 0.2 0.4  0.7 0.3 0.4  0.7 0.2 0.4  0.8 0.3 0.4  0.8 0.2 0.4  0.9 0.3 0.4  0.9 0.2 0.4  1 0.3 0.4  1 0.2 0.4  0.1 0.4 0.4  0 0.4 0.4  0.2 0.4 0.4  0.3 0.4 0.4  0.4 0.4 0.4  0.5 0.4 0.4  0.6 0.4 0.4  0.7 0.4 0.4  0.8 0.4 0.4  0.9 0.4 0.4  1 0.4 0.4  0.1 0.5 0.4  0 0.5 0.4  0.2 0.5 0.4  0.3 0.5 0.4  0.4 0.5 0.4  0.5 0.5 0.4  0.6 0.5 0.4  0.7 0.5 0.4  0.8 0.5 0.4  0.9 0.5 0.4  1 0.5 0.4  0.1 0.6 0.4  0 0.6 0.4  0.2 0.6 0.4  0.3 0.6 0.4  0.4 0.6 0.4  0.5 0.6 0.4  0.6 0.6 0.4  0.7 0.6 0.4  0.8 0.6 0.4  0.9 0.6 0.4  1 0.6 0.4  0.1 0.7 0.4  0 0.7 0.4  0.2 0.7 0.4  0.3 0.7 0.4  0.4 0.7 0.4  0.5 0.7 0.4  0.6 0.7 0.4  0.7 0.7 0.4  0.8 0.7 0.4  0.9 0.7 0.4  1 0.7 0.4  0.1 0.8 0.4  0 0.8 0.4  0.2 0.8 0.4  0.3 0.8 0.4  0.4 0.8 0.4  0.5 0.8 0.4  0.6 0.8 0.4  0.7 0.8 0.4  0.8 0.8 0.4  0.9 0.8 0.4  1 0.8 0.4  0.1 0.3 0.5  0.1 0.2 0.5  0 0.2 0.5  0 0.3 0.5  0.2 0.3 0.5  0.2 0.2 0.5  0.3 0.3 0.5  0.3 0.2 0.5  0.4 0.3 0.5  0.4 0.2 0.5  0.5 0.3 0.5  0.5 0.2 0.5  0.6 0.3 0.5  0.6 0.2 0.5  0.7 0.3 0.5  0.7 0.2 0.5  0.8 0.3 0.5  0.8 0.2 0.5  0.9 0.3 0.5  0.9 0.2 0.5  1 0.3 0.5  1 0.2 0.5  0.1 0.4 0.5  0 0.4 0.5  0.2 0.4 0.5  0.3 0.4 0.5  0.4 0.4 0.5  0.5 0.4 0.5  0.6 0.4 0.5  0.7 0.4 0.5  0.8 0.4 0.5  0.9 0.4 0.5  1 0.4 0.5  0.1 0.5 0.5  0 0.5 0.5  0.2 0.5 0.5  0.3 0.5 0.5  0.4 0.5 0.5  0.5 0.5 0.5  0.6 0.5 0.5  0.7 0.5 0.5  0.8 0.5 0.5  0.9 0.5 0.5  1 0.5 0.5  0.1 0.6 0.5  0 0.6 0.5  0.2 0.6 0.5  0.3 0.6 0.5  0.4 0.6 0.5  0.5 0.6 0.5  0.6 0.6 0.5  0.7 0.6 0.5  0.8 0.6 0.5  0.9 0.6 0.5  1 0.6 0.5  0.1 0.7 0.5  0 0.7 0.5  0.2 0.7 0.5  0.3 0.7 0.5  0.4 0.7 0.5  0.5 0.7 0.5  0.6 0.7 0.5  0.7 0.7 0.5  0.8 0.7 0.5  0.9 0.7 0.5  1 0.7 0.5  0.1 0.8 0.5  0 0.8 0.5  0.2 0.8 0.5  0.3 0.8 0.5  0.4 0.8 0.5  0.5 0.8 0.5  0.6 0.8 0.5  0.7 0.8 0.5  0.8 0.8 0.5  0.9 0.8 0.5  1 0.8 0.5  0.1 0.3 0.6  0.1 0.2 0.6  0 0.2 0.6  0 0.3 0.6  0.2 0.3 0.6  0.2 0.2 0.6  0.3 0.3 0.6  0.3 0.2 0.6  0.4 0.3 0.6  0.4 0.2 0.6  0.5 0.3 0.6  0.5 0.2 0.6  0.6 0.3 0.6  0.6 0.2 0.6  0.7 0.3 0.6  0.7 0.2 0.6  0.8 0.3 0.6  0.8 0.2 0.6  0.9 0.3 0.6  0.9 0.2 0.6  1 0.3 0.6  1 0.2 0.6  0.1 0.4 0.6  0 0.4 0.6  0.2 0.4 0.6  0.3 0.4 0.6  0.4 0.4 0.6  0.5 0.4 0.6  0.6 0.4 0.6  0.7 0.4 0.6  0.8 0.4 0.6  0.9 0.4 0.6  1 0.4 0.6  0.1 0.5 0.6  0 0.5 0.6  0.2 0.5 0.6  0.3 0.5 0.6  0.4 0.5 0.6  0.5 0.5 0.6  0.6 0.5 0.6  0.7 0.5 0.6  0.8 0.5 0.6  0.9 0.5 0.6  1 0.5 0.6  0.1 0.6 0.6  0 0.6 0.6  0.2 0.6 0.6  0.3 0.6 0.6  0.4 0.6 0.6  0.5 0.6 0.6  0.6 0.6 0.6  0.7 0.6 0.6  0.8 0.6 0.6  0.9 0.6 0.6  1 0.6 0.6  0.1 0.7 0.6  0 0.7 0.6  0.2 0.7 0.6  0.3 0.7 0.6  0.4 0.7 0.6  0.5 0.7 0.6  0.6 0.7 0.6  0.7 0.7 0.6  0.8 0.7 0.6  0.9 0.7 0.6  1 0.7 0.6  0.1 0.8 0.6  0 0.8 0.6  0.2 0.8 0.6  0.3 0.8 0.6  0.4 0.8 0.6  0.5 0.8 0.6  0.6 0.8 0.6  0.7 0.8 0.6  0.8 0.8 0.6  0.9 0.8 0.6  1 0.8 0.6  0.1 0.3 0.7  0.1 0.2 0.7  0 0.2 0.7  0 0.3 0.7  0.2 0.3 0.7  0.2 0.2 0.7  0.3 0.3 0.7  0.3 0.2 0.7  0.4 0.3 0.7  0.4 0.2 0.7  0.5 0.3 0.7  0.5 0.2 0.7  0.6 0.3 0.7  0.6 0.2 0.7  0.7 0.3 0.7  0.7 0.2 0.7  0.8 0.3 0.7  0.8 0.2 0.7  0.9 0.3 0.7  0.9 0.2 0.7  1 0.3 0.7  1 0.2 0.7  0.1 0.4 0.7  0 0.4 0.7  0.2 0.4 0.7  0.3 0.4 0.7  0.4 0.4 0.7  0.5 0.4 0.7  0.6 0.4 0.7  0.7 0.4 0.7  0.8 0.4 0.7  0.9 0.4 0.7  1 0.4 0.7  0.1 0.5 0.7  0 0.5 0.7  0.2 0.5 0.7  0.3 0.5 0.7  0.4 0.5 0.7  0.5 0.5 0.7  0.6 0.5 0.7  0.7 0.5 0.7  0.8 0.5 0.7  0.9 0.5 0.7  1 0.5 0.7  0.1 0.6 0.7  0 0.6 0.7  0.2 0.6 0.7  0.3 0.6 0.7  0.4 0.6 0.7  0.5 0.6 0.7  0.6 0.6 0.7  0.7 0.6 0.7  0.8 0.6 0.7  0.9 0.6 0.7  1 0.6 0.7  0.1 0.7 0.7  0 0.7 0.7  0.2 0.7 0.7  0.3 0.7 0.7  0.4 0.7 0.7  0.5 0.7 0.7  0.6 0.7 0.7  0.7 0.7 0.7  0.8 0.7 0.7  0.9 0.7 0.7  1 0.7 0.7  0.1 0.8 0.7  0 0.8 0.7  0.2 0.8 0.7  0.3 0.8 0.7  0.4 0.8 0.7  0.5 0.8 0.7  0.6 0.8 0.7  0.7 0.8 0.7  0.8 0.8 0.7  0.9 0.8 0.7  1 0.8 0.7  0.1 0.3 0.8  0.1 0.2 0.8  0 0.2 0.8  0 0.3 0.8  0.2 0.3 0.8  0.2 0.2 0.8  0.3 0.3 0.8  0.3 0.2 0.8  0.4 0.3 0.8  0.4 0.2 0.8  0.5 0.3 0.8  0.5 0.2 0.8  0.6 0.3 0.8  0.6 0.2 0.8  0.7 0.3 0.8  0.7 0.2 0.8  0.8 0.3 0.8  0.8 0.2 0.8  0.9 0.3 0.8  0.9 0.2 0.8  1 0.3 0.8  1 0.2 0.8  0.1 0.4 0.8  0 0.4 0.8  0.2 0.4 0.8  0.3 0.4 0.8  0.4 0.4 0.8  0.5 0.4 0.8  0.6 0.4 0.8  0.7 0.4 0.8  0.8 0.4 0.8  0.9 0.4 0.8  1 0.4 0.8  0.1 0.5 0.8  0 0.5 0.8  0.2 0.5 0.8  0.3 0.5 0.8  0.4 0.5 0.8  0.5 0.5 0.8  0.6 0.5 0.8  0.7 0.5 0.8  0.8 0.5 0.8  0.9 0.5 0.8  1 0.5 0.8  0.1 0.6 0.8  0 0.6 0.8  0.2 0.6 0.8  0.3 0.6 0.8  0.4 0.6 0.8  0.5 0.6 0.8  0.6 0.6 0.8  0.7 0.6 0.8  0.8 0.6 0.8  0.9 0.6 0.8  1 0.6 0.8  0.1 0.7 0.8  0 0.7 0.8  0.2 0.7 0.8  0.3 0.7 0.8  0.4 0.7 0.8  0.5 0.7 0.8  0.6 0.7 0.8  0.7 0.7 0.8  0.8 0.7 0.8  0.9 0.7 0.8  1 0.7 0.8  0.1 0.8 0.8  0 0.8 0.8  0.2 0.8 0.8  0.3 0.8 0.8  0.4 0.8 0.8  0.5 0.8 0.8  0.6 0.8 0.8  0.7 0.8 0.8  0.8 0.8 0.8  0.9 0.8 0.8  1 0.8 0.8  </DataArray>
</Points>
<Cells>
[...]
<PointData  Vectors="f_23"> 
<DataArray  type="Float64"  Name="f_23"  NumberOfComponents="3" format="ascii">1.1126885309822732e-04 -6.6199828044757688e-05 2.3460850274465862e-05  1.3563087047284295e-04 -9.1593631936419902e-05 2.9408455059630989e-05  1.1327287369335968e-04 -6.1377084045964624e-05 2.0851102873751361e-05  9.2784175324976653e-02 -7.3563505116141053e-05 -2.3587254736399425e-04  1.5394157450961259e-04 -9.0985429103784471e-05 3.4399659535550848e-05  1.3127476949238774e-04 -6.2924420690425308e-05 2.4633879336956290e-05  8.9824748895725380e-05 -3.7484464354569887e-05 1.9303387963540408e-05  9.2585758840444926e-02 -1.7021317348761553e-04 -5.5077936876514000e-04  1.4455444405787120e-04 -1.3541383278994567e-04 5.5125861029447812e-05  1.3084344237180461e-04 -9.8896760612113261e-05 3.9408375474291693e-05  9.3241409258739888e-02 -1.1897534451018420e-06 -1.1626029896591787e-04  1.7714793859908255e-04 -1.4240829255830189e-04 6.7337364202758632e-05  1.2205154431732708e-04 -1.6346052625984254e-04 1.0113605679715681e-04  1.1583704135208461e-04 -1.2315676021281449e-04 7.2884156931567664e-05  9.3173013998009341e-02 6.6992279979245637e-05 -1.0912031875174276e-04  1.7733358672893221e-04 -1.8485939981827644e-04 1.2787972438295015e-04  6.5751535042763649e-05 -1.7255181889340180e-04 1.6874797588407403e-04  7.3092640946579541e-05 -1.3213108238611934e-04 1.2602155099392546e-04  9.3191512905022644e-02 1.4340118219804016e-04 -1.6512237312834392e-04  1.4189062121164534e-04 -2.1396095859351722e-04 2.2553016710853848e-04  -3.3920485115413742e-05 -1.5536530862501625e-04 2.4347254306319747e-04  -8.0828386924314304e-06 -1.2170874649278240e-04 1.9163910088128337e-04  9.3294700693805230e-02 2.3927187363282761e-04 -2.6170644812036038e-04  4.3494727553687402e-05 -2.1749435264963198e-04 3.5107447498614730e-04  -1.5845416432386000e-04 -1.1078273956492636e-04 2.8968347220484749e-04  -1.2059582201525391e-04 -9.0573957657198755e-05 2.4356637660403766e-04  9.3462390722918981e-02 3.3224211800823524e-04 -3.7048308416485755e-04  -1.2333982001314368e-04 -1.8046784091262772e-04 4.5870609137053025e-04  -2.3420866519647716e-04 -5.7710088128290941e-05 2.5917256557942884e-04  -2.1040393460171295e-04 -4.9311849580029221e-05 2.3670355521387119e-04  9.3625066576248347e-02 3.7443053966083602e-04 -4.0744202464672384e-04  -2.8441301427638429e-04 -1.1075771718916927e-04 4.6142503293539758e-04  -1.5619383558247008e-04 -2.7968105315780162e-05 1.5078714688470974e-04  -1.7421076038718304e-04 -2.0480179777337416e-05 1.4981008909923871e-04  9.3535211287917711e-02 3.1096396301285109e-04 -1.8586894354295390e-04  -2.9639909167477425e-04 -5.6396304823720796e-05 2.9018297773961279e-04  1.6829353644039038e-05 -8.1174552551707896e-06 6.1217779393741962e-05  -5.6699402803407844e-06 -9.1617996465713939e-06 7.1929296188257170e-05  9.2846043901822994e-02 7.8170661738413650e-05 1.1934373108153509e-04  -1.2806992892833708e-04 -1.6342899375949996e-05 1.2573579871836548e-04  1.1636348252235462e-04 -7.7972395749267238e-06 9.2943662111761585e-05  1.2099508379949491e-04 -1.0605815305950159e-05 8.3814126339065167e-05  9.1388523314067799e-02 -2.5895276285380395e-04 -9.7819457982761121e-04  2.6572342046053135e-05 -1.7021367523383995e-05 1.3000468074886304e-04  7.9730375338957015e-05 -2.9912296161334959e-05 1.9875427578822838e-05  1.2091928057382129e-01 1.6433921639844460e-04 -3.1391260385039884e-04  5.8329448822157530e-05 -1.4059905369472413e-05 1.9203506506931763e-05  1.2128585640883502e-01 -2.1056226304908034e-04 -6.3695890930968719e-04  1.0434206841540702e-04 -5.4516805634433932e-05 3.4709685227234609e-05  1.2129057568660367e-01 1.3794039632846446e-04 -1.3755704936856700e-04  1.0222938085494280e-04 -7.3805256453879917e-05 6.1025350397998519e-05  1.2123847993165501e-01 1.6064631229651308e-04 -8.9113358452880902e-05  7.5849572574982448e-05 -8.1533883191752568e-05 1.0478268517122123e-04  1.2123608623590651e-01 2.1068465128111188e-04 -9.8303735736816723e-05  1.2975489422780830e-05 -7.4843522791158930e-05 1.6281004025793300e-04  1.2130439465117561e-01 2.7690604271329703e-04 -1.1958029280476792e-04  -8.7389766077612845e-05 -5.2737472149367766e-05 2.1554157800800856e-04  1.2140306626514910e-01 3.2044589545512491e-04 -1.2389593700293933e-04  -1.8212783823094128e-04 -2.0998228941568548e-05 2.2107097204344194e-04  1.2146392549165559e-01 2.7064892411911485e-04 -7.1973258900907315e-05  -1.6295648793545516e-04 1.5146821480152194e-06 1.4729931665628478e-04  1.2139913021136334e-01 6.8949782227265512e-05 5.7880025345845758e-05  1.8798063657044622e-06 -2.8696115496037616e-06 7.1397603148611521e-05  1.2111582182640951e-01 -2.6180326478420868e-04 -6.5432422824626080e-05  1.2500678023787869e-04 -2.5582892556256518e-06 8.7596847334821902e-05  1.1987133853324540e-01 -1.9480119905132027e-04 -1.5779993096450673e-03  5.9499013685682085e-05 -1.4893435476200027e-05 2.0932722514760591e-05  1.2970943746788061e-01 1.6976614376884835e-04 -2.9075414412480432e-04  4.3355142391061738e-05 -3.4312158072297074e-06 1.9344479820325653e-05  1.3009047406368310e-01 -1.2614091403720298e-04 -6.3550367406032485e-04  8.3035619802230149e-05 -3.0819161265868956e-05 3.5090122960567134e-05  1.3005597431626792e-01 1.7257082423591076e-04 -9.9109871291618528e-05  8.9867743288404891e-05 -4.6486996564913208e-05 5.8863048352469478e-05  1.3002660201070462e-01 1.6574418931897549e-04 -4.0899536793378013e-05  7.6224066792197906e-05 -5.4268234161887352e-05 9.8441578871452537e-05  1.3005152971151870e-01 1.7869063501131717e-04 -3.3609854557030332e-05  2.8040728701764646e-05 -5.0868487707501427e-05 1.5225474073287748e-04  1.3012662265528377e-01 2.0463984979556080e-04 -2.9797359836291101e-05  -6.0321129228080731e-05 -3.3977678687241881e-05 2.0419224669698978e-04  1.3019056104853180e-01 2.1486342918892388e-04 -5.7862647630245285e-06  -1.5547096640835704e-04 -4.2812452932168604e-06 2.1576367978149989e-04  1.3016231135948236e-01 1.6070049388897594e-04 5.6608627307578852e-05  -1.5479361181864888e-04 2.3521664656893455e-05 1.4921080753079184e-04  1.3002260497322973e-01 2.4051255278039203e-06 1.1165051482661269e-04  -5.8854447926199835e-06 8.8134414233462402e-06 7.2601997516090174e-05  1.2986193931578296e-01 -2.2772849034882688e-04 -2.3436199261041941e-04  1.0306079365762346e-04 2.0646631218163464e-05 9.4315308481851765e-05  1.2875799186780409e-01 -9.7063798088793934e-05 -1.6476038264133428e-03  4.7100254168013181e-05 -7.7393082358514003e-06 2.1949629293028964e-05  1.2075508746993749e-01 1.6667447027988858e-04 -2.4988720504737525e-04  3.6581478333917547e-05 -3.3635632210886303e-06 1.8366234532543041e-05  1.2098737600755405e-01 -5.7858449798527913e-05 -5.8744070302223456e-04  6.5777833196367075e-05 -1.9311219140384362e-05 3.7525544300102227e-05  1.2111951709458182e-01 1.4460965675927719e-04 -7.1344070616227885e-05  7.7282902613322825e-05 -3.3193966291557659e-05 6.1320288023050277e-05  1.2110844049539005e-01 1.1651717462827371e-04 -1.3279064771678526e-05  7.2710289729010057e-05 -4.2159137903849229e-05 9.8501016641786118e-05  1.2114151461759082e-01 1.0077906014035655e-04 2.3646023475103606e-06  3.6546849122136711e-05 -4.2479875019155377e-05 1.4796395181809142e-04  1.2120817789117720e-01 9.5459508480823455e-05 1.9691258026921239e-05  -3.8281073390666511e-05 -3.1373571230585592e-05 1.9609374173500154e-04  1.2123456990823193e-01 8.9853013670416113e-05 6.0268011033012516e-05  -1.2650140492559674e-04 -6.3339575514274362e-06 2.0952294652361962e-04  1.2113934073859792e-01 6.9814161271862000e-05 1.3269884724898242e-04  -1.4165413629202482e-04 2.6132575273180085e-05 1.4953681932874236e-04  1.2094253874514557e-01 2.4087489318548311e-05 1.4857736648294872e-04  -2.4146915484401654e-05 1.5172861927537750e-05 7.2705277113466061e-05  1.2080177882696898e-01 -2.6896003937628206e-05 -2.5793911398442417e-04  6.0368595179193137e-05 3.6034970374852968e-05 9.3434909012784140e-05  1.1995170320000700e-01 9.6868311945952923e-05 -1.4968728598541269e-03  4.0697686843393711e-05 -4.8165611861162335e-06 1.8490950385792539e-05  9.1860936677979496e-02 9.9515345877552536e-05 -2.2703195448701781e-04  3.4726835766713221e-05 -2.0068280221907601e-06 1.2734955573910752e-05  9.1401967820709779e-02 -3.1966148096773027e-04 -5.4145352450637801e-04  5.0598834071665940e-05 -1.1271076852676576e-05 3.6838302328187376e-05  9.2171817237554840e-02 5.8534619307712994e-05 -5.7248477636370252e-05  6.3647292167535535e-05 -2.4777127393095645e-05 6.1246919408120156e-05  9.2117884110374720e-02 -8.5703968606270318e-07 -1.1281570593693634e-06  6.7135651831303058e-05 -3.6733561758888690e-05 9.5640823113828249e-05  9.2084697395196743e-02 -5.2360785127883185e-05 3.2103669860315919e-05  4.2022731219417229e-05 -4.0806518929971410e-05 1.3956505728363955e-04  9.2064491207632493e-02 -9.9293785098155039e-05 7.9997360419980875e-05  -2.1661985798052941e-05 -3.4446888041459807e-05 1.8311605429959115e-04  9.1998232740703470e-02 -1.3756530420072250e-04 1.5909510302173420e-04  -1.0228099338916723e-04 -1.6557778648713944e-05 1.9986330055837495e-04  9.1833569752033078e-02 -1.5334895786588506e-04 2.6002702172815516e-04  -1.2344555976074621e-04 9.3390571400244878e-06 1.5312378400885620e-04  9.1599438257989288e-02 -1.3447013410250596e-04 2.7365080322163917e-04  -3.8816055107262350e-05 1.8671343555497935e-05 7.2883433393719472e-05  9.1327436458800398e-02 -1.4471621261101121e-04 -6.4997731638589111e-05  2.0098159684274426e-05 2.6143306456614114e-05 8.8379579185597813e-05  9.1000119849724254e-02 1.5350076640309446e-04 -1.1423477473000091e-03  3.3188918266639120e-05 -9.9974634610362241e-06 1.5454615540196635e-05  3.4904159364584378e-05 -1.9243602877521299e-06 1.2293111247175421e-05  2.3736705421709681e-05 1.9942302760190667e-06 2.4869262243127704e-06  3.7415347917690317e-05 -6.4346517415243606e-06 7.0885327195130959e-06  4.6236394998708075e-05 -1.0561628285773665e-05 1.8701919098681720e-05  4.1917429483282060e-05 -5.3908858544245262e-06 2.6734280286119210e-05  5.6420462682334813e-05 -1.8954642495742063e-05 3.0739511294110483e-05  5.8221058777054428e-05 -1.5280203073640609e-05 4.6941124234776163e-05  6.4215346626739743e-05 -3.0330997596935763e-05 5.0727228976681614e-05  7.3917960996719949e-05 -2.9736600292063705e-05 7.7430561110267878e-05  5.1850403632342434e-05 -3.5444744922700118e-05 7.7751821202093639e-05  7.2858533610749201e-05 -3.9407298731884909e-05 1.1997644604771682e-04  4.2018965102213913e-06 -3.1890562372804352e-05 1.1036177887813200e-04  3.6573423638793483e-05 -4.0424178449822821e-05 1.7123420836215908e-04  -7.4971757415350339e-05 -1.9934076416425412e-05 1.3808558740472179e-04  -4.3409483877008473e-05 -2.9995769331565891e-05 2.1420275145917606e-04  -1.3039540239064053e-04 -1.8331424289721840e-06 1.3434653368882803e-04  -1.3309878955290944e-04 -7.6764223352023571e-06 2.1299135394819819e-04  -5.9373941352126778e-05 1.7129258156704555e-05 8.5058344659204820e-05  -1.2122686112060502e-04 1.1964690343164245e-05 1.4289539948067438e-04  -7.3922738272258577e-07 1.6459291574733809e-05 9.1278371110764260e-05  -6.6096369984995927e-05 3.7227952701794490e-05 9.7619444720717461e-05  1.2086485655360535e-01 -1.1406226446026577e-04 -1.8915250128822153e-05  1.8498013788162670e-04 -9.1314656377511453e-05 3.9798252837562973e-05  1.5764586830289374e-04 -6.0635563925226175e-05 2.6129144904121718e-05  1.2123057715177842e-01 -1.4748713530346480e-04 -7.0268780598783855e-04  1.2116143213532155e-01 -4.7760028242751064e-05 2.0362176631437608e-05  2.2922370952273060e-04 -1.5036633933248345e-04 8.2045527149655217e-05  1.2108629336598470e-01 3.2808976237525167e-05 -3.1604187941349072e-05  2.7189400348817173e-04 -2.1125814199254094e-04 1.6204096137837259e-04  1.2104932303163132e-01 1.2519063842242496e-04 -1.5476134240487231e-04  2.8523898219738521e-04 -2.7408317618692356e-04 3.0298939800323430e-04  1.2111842599168862e-01 2.6729263820712194e-04 -3.6895607411436139e-04  2.0902249265410079e-04 -3.2687167262030305e-04 5.1699362225554601e-04  1.2135024044573645e-01 4.6155307787367920e-04 -6.7247919228809129e-04  -2.0025771212250940e-05 -3.3454937342894549e-04 7.7256498384721615e-04  1.2182589468500458e-01 5.8692185647669969e-04 -9.2894246275384543e-04  -3.5279306964805616e-04 -2.6065388246506160e-04 9.2871448097854646e-04  1.2217637091330037e-01 5.5755717232350722e-04 -8.3937168263376624e-04  -5.2076312081582917e-04 -1.4345568677603691e-04 7.0900015108710170e-04  1.2128152417466140e-01 2.8720349203240747e-04 -3.1617699829415854e-04  -4.2965235075086020e-04 -5.1051698130406739e-05 2.8097289193860798e-04  1.2012081875438396e-01 -6.0032629438135814e-04 -2.6917047570156035e-03  -2.8367882754804657e-04 -3.1995350506185627e-05 3.0724086590918259e-04  1.6804373907332079e-01 2.0100598833124852e-04 -4.1178104987897625e-05  1.6822233217972177e-01 -1.8600921499843347e-04 -7.9354610156673745e-04  1.6823992416852152e-01 1.3887923175457607e-04 5.6849000995983102e-06  1.6826344680476535e-01 1.7483349596799646e-04 -2.5586021550783177e-05  1.6825407091206090e-01 2.6113317208892702e-04 -1.2058654160346513e-04  1.6833045008391420e-01 4.0089357659184890e-04 -2.6721156754312778e-04  1.6853430523372170e-01 5.6010494993885464e-04 -4.3785221379295889e-04  1.6883359720268790e-01 5.9487321279570900e-04 -5.3272347643031916e-04  1.6898303209442683e-01 2.9153334878678262e-04 -4.0260623619233768e-04  1.6857259319982718e-01 -3.8551595250526499e-04 -3.9749230521356899e-04  1.6746032912746056e-01 -2.7848362509123322e-04 -3.0504128275980740e-03  1.8319591157952939e-01 1.7797734499078023e-04 -3.9509904596710727e-05  1.8329024547875153e-01 -1.0381020319420194e-04 -7.8726217347056674e-04  1.8339644554753975e-01 1.7627488951606644e-04 2.1394614549619979e-05  1.8345800063866965e-01 1.7219758319929069e-04 7.5014368245511055e-06  1.8349542778064720e-01 2.0325372736025156e-04 -6.4644352428594025e-05  1.8360516814226430e-01 2.6855671808121204e-04 -1.7544325720482751e-04  1.8379951426500360e-01 3.3425468914118214e-04 -3.0539707236017352e-04  1.8397657296581071e-01 3.0537651286644056e-04 -3.9196857689035197e-04  1.8388921646126266e-01 4.0255037326226399e-05 -3.5219438995455390e-04  1.8347117683316999e-01 -4.8420345171968748e-04 -6.4019147490831398e-04  1.8251161707439265e-01 -2.4441497179450460e-04 -2.9498038274599872e-03  1.6790236235876352e-01 1.4490351780345348e-04 -1.2750295328779491e-05  1.6782542246952001e-01 -6.2062950811878317e-05 -7.1516659894294856e-04  1.6813833346122262e-01 1.3622537914843231e-04 4.3176611542559981e-05  1.6821611879081980e-01 1.0864264488690705e-04 3.9286360177795070e-05  1.6826747977287107e-01 9.5727647043703136e-05 -8.0384800345654491e-06  1.6837422728410792e-01 1.0097794975074412e-04 -8.1529630739371104e-05  1.6852555751320697e-01 1.0786041364139269e-04 -1.6621566445614361e-04  1.6858252118129016e-01 7.6169120256323056e-05 -2.2151155175924894e-04  1.6834751500840045e-01 -4.8301674850385132e-05 -2.0382944092791030e-04  1.6792947486238749e-01 -2.4886802534954556e-04 -6.3891429525288657e-04  1.6743460015507250e-01 2.0819092979762465e-05 -2.5638563754495059e-03  1.2074868825001542e-01 3.9995572109361830e-05 3.7147327867227226e-05  1.2003673710510054e-01 -3.5782458173390147e-04 -5.6806365407718494e-04  1.2093802574698846e-01 3.7579695937223459e-05 7.7324024874073647e-05  1.2095646903196661e-01 -1.1969407611205205e-05 8.5252186558034499e-05  1.2093473483981294e-01 -6.6875684000025482e-05 8.9492012132319661e-05  1.2092769652783472e-01 -1.1709827207732123e-04 1.0143365115367372e-04  1.2092914821412996e-01 -1.6155847525989002e-04 1.3409471074558312e-04  1.2084274701618572e-01 -1.9504983119862911e-04 2.0604837248120814e-04  1.2051616198605102e-01 -2.0995790734300025e-04 2.4116139063909769e-04  1.1998035195213302e-01 -2.5103346379129883e-04 -2.4247689004639980e-04  1.2034705889054205e-01 1.5367392981504034e-04 -1.8230681084975507e-03  5.2372171682393548e-05 -2.8756847089367925e-06 1.6264719910638114e-05  5.3171017366885236e-05 -6.9312667696534564e-06 1.7143688773056255e-05  6.0225579331367614e-05 -6.5518255496566089e-06 3.9272781976844801e-05  8.3973923576508285e-05 -1.2022969726398391e-05 6.8318041873603291e-05  1.1551903120336997e-04 -2.3813348155288891e-05 1.1718810852695399e-04  1.3177445471465330e-04 -3.4649005528852136e-05 1.9053409279959306e-04  1.0398324479283659e-04 -3.9916434724628686e-05 2.8349966198523273e-04  2.7400514717703079e-06 -3.4757905185606266e-05 3.6987015152845792e-04  -1.5995735458158009e-04 -1.4486667801145899e-05 3.8995175684517804e-04  -2.4309737987885399e-04 7.9071151846948636e-06 2.8723837925604691e-04  -2.1799344646733574e-04 3.8176714287025532e-05 2.2680563286183605e-04  1.2963627095681132e-01 -1.0449383947545709e-04 2.6774859382406930e-05  2.1717409573005083e-04 -8.8164046905583535e-05 3.3597156391635492e-05  1.8367387531815265e-04 -5.7444908167571514e-05 2.0967778884979318e-05  1.3000523284797152e-01 -1.3567959845236721e-04 -5.4217973068286713e-04  1.2987447250240824e-01 -3.7591344899453676e-05 1.3574902376094515e-04  2.8769968678043643e-04 -1.5020458976976485e-04 7.2893648411563206e-05  1.2977335570209936e-01 4.3092162188337528e-05 1.1724758837680784e-04  3.8706736926399378e-04 -2.2356423409685612e-04 1.5138763816248830e-04  1.2971876444176633e-01 1.4693116434297637e-04 3.2715263660697734e-05  4.8949742430031990e-04 -3.1787368392279523e-04 3.0340776823497943e-04  1.2976384397973695e-01 3.3600277812049584e-04 -1.6344403349601396e-04  5.1781160503708268e-04 -4.3795984006962489e-04 5.7494954091187264e-04  1.3000836170628524e-01 7.0045733332681323e-04 -5.5776831802866193e-04  3.0370138105880498e-04 -5.5588841969027964e-04 1.0076456820096408e-03  1.3057546325389943e-01 1.2244922256129476e-03 -1.1521405451939070e-03  -3.0209279987768677e-04 -5.7565323792650995e-04 1.5385900471962272e-03  1.3137676812115001e-01 1.2076182581053966e-03 -1.6434694461751904e-03  -8.6718949374051720e-04 -4.0030412409558210e-04 1.7979983503823586e-03  1.3017436289390544e-01 1.0801086160735838e-03 -1.6735413238825004e-03  -1.0172295564146959e-03 -1.7662959822525528e-04 7.2672388978216383e-04  1.2802040329253750e-01 3.8883966390015098e-04 -6.1217774617878060e-03  -1.0923084311828906e-03 -1.0379857206263115e-04 8.5799818457712963e-04  1.8317951077932104e-01 2.1342154768214851e-04 -6.3469596871296422e-06  1.8328054706860356e-01 -1.7356584205994188e-04 -6.1861540698766892e-04  1.8334485013415699e-01 1.4811986668437671e-04 1.2630732635477758e-04  1.8337732672808502e-01 1.9940043493444409e-04 1.0113969512605354e-04  1.8340016416103203e-01 3.1907104800405243e-04 4.5815975306441690e-06  1.8352405372597821e-01 5.4181085249120923e-04 -1.6961462259924853e-04  1.8383103781887594e-01 8.9744958310199381e-04 -4.3178613945617971e-04  1.8428770927224947e-01 1.2396499195622644e-03 -7.2352554032806791e-04  1.8446720640305692e-01 1.0001893326252943e-03 -9.1762631992221475e-04  1.8373948430773840e-01 -2.2602994539326268e-04 -7.3358997211835065e-04  1.8229910243795197e-01 4.0192747822440208e-04 -5.4938625721746943e-03  2.0061995135503982e-01 1.8111481629051539e-04 -1.3425343481788535e-05  2.0061529216398910e-01 -9.5139446587990341e-05 -6.3313474312198781e-04  2.0080649042250687e-01 1.7556923237287922e-04 1.2494554720217366e-04  2.0090311229908420e-01 1.8241882951030542e-04 1.1282755700771916e-04  2.0098340260796974e-01 2.3289733224543475e-04 3.4987726803255664e-05  2.0115391598419557e-01 3.3816402744317274e-04 -9.9581376221030506e-05  2.0147802788759156e-01 4.7700200534247134e-04 -2.9390724431989932e-04  2.0184558444174089e-01 5.2105026213390205e-04 -5.3193254684279732e-04  2.0163618669443673e-01 1.7971139359844649e-04 -7.6523873901094500e-04  2.0054346495757971e-01 -7.1636680149200153e-04 -7.2189737743090564e-04  1.9935399705464998e-01 -7.0405991071678542e-05 -4.4722427556941335e-03  1.8305070819575062e-01 1.2636038362882191e-04 3.0414236083915222e-06  1.8288953359251173e-01 -7.0417454438308070e-05 -5.8493010443779522e-04  1.8327114996105032e-01 1.2782432409810961e-04 1.3209901670535725e-04  1.8338535548772800e-01 1.0215321080050915e-04 1.3220262423065278e-04  1.8348210512581381e-01 9.1342515210159279e-