<?xml version="1.0"?>
<VTKFile type="UnstructuredGrid"  version="0.1"  >
<UnstructuredGrid>
<Piece  NumberOfPoints="533" NumberOfCells="2122">
<Points>
<DataArray  type="Float64"  NumberOfComponents="3"  format="ascii">0 0.2 0.2  0.1 0.2 0.2  0.1 0.3 0.2  0.1 0.3 0.3  0.1 0.2 0.3  0 0.2 0.3  0 0.3 0.2  0 0.3 0.3  0.2 0.2 0.2  0.2 0.3 0.2  0.2 0.3 0.3  0.2 0.2 0.3  0.3 0.2 0.2  0.3 0.3 0.2  0.3 0.3 0.3  0.3 0.2 0.3  0.4 0.2 0.2  0.4 0.3 0.2  0.4 0.3 0.3  0.4 0.2 0.3  0.5 0.2 0.2  0.5 0.3 0.2  0.5 0.3 0.3  0.5 0.2 0.3  0.6 0.2 0.2  0.6 0.3 0.2  0.6 0.3 0.3  0.6 0.2 0.3  0.7 0.2 0.2  0.7 0.3 0.2  0.7 0.3 0.3  0.7 0.2 0.3  0.8 0.2 0.2  0.8 0.3 0.2  0.8 0.3 0.3  0.8 0.2 0.3  0.9 0.2 0.2  0.9 0.3 0.2  0.9 0.3 0.3  0.9 0.2 0.3  1 0.2 0.2  1 0.3 0.2  1 0.3 0.3  1 0.2 0.3  0.1 0.4 0.2  0.1 0.4 0.3  0 0.4 0.2  0 0.4 0.3  0.2 0.4 0.2  0.2 0.4 0.3  0.3 0.4 0.2  0.3 0.4 0.3  0.4 0.4 0.2  0.4 0.4 0.3  0.5 0.4 0.2  0.5 0.4 0.3  0.6 0.4 0.2  0.6 0.4 0.3  0.7 0.4 0.2  0.7 0.4 0.3  0.8 0.4 0.2  0.8 0.4 0.3  0.9 0.4 0.2  0.9 0.4 0.3  1 0.4 0.2  1 0.4 0.3  0.1 0.5 0.2  0.1 0.5 0.3  0 0.5 0.2  0 0.5 0.3  0.2 0.5 0.2  0.2 0.5 0.3  0.3 0.5 0.2  0.3 0.5 0.3  0.4 0.5 0.2  0.4 0.5 0.3  0.5 0.5 0.2  0.5 0.5 0.3  0.6 0.5 0.2  0.6 0.5 0.3  0.7 0.5 0.2  0.7 0.5 0.3  0.8 0.5 0.2  0.8 0.5 0.3  0.9 0.5 0.2  0.9 0.5 0.3  1 0.5 0.2  1 0.5 0.3  0.1 0.6 0.2  0.1 0.6 0.3  0 0.6 0.2  0 0.6 0.3  0.2 0.6 0.2  0.2 0.6 0.3  0.3 0.6 0.2  0.3 0.6 0.3  0.4 0.6 0.2  0.4 0.6 0.3  0.5 0.6 0.2  0.5 0.6 0.3  0.6 0.6 0.2  0.6 0.6 0.3  0.7 0.6 0.2  0.7 0.6 0.3  0.8 0.6 0.2  0.8 0.6 0.3  0.9 0.6 0.2  0.9 0.6 0.3  1 0.6 0.2  1 0.6 0.3  0.1 0.7 0.2  0.1 0.7 0.3  0 0.7 0.2  0 0.7 0.3  0.2 0.7 0.2  0.2 0.7 0.3  0.3 0.7 0.2  0.3 0.7 0.3  0.4 0.7 0.2  0.4 0.7 0.3  0.5 0.7 0.2  0.5 0.7 0.3  0.6 0.7 0.2  0.6 0.7 0.3  0.7 0.7 0.2  0.7 0.7 0.3  0.8 0.7 0.2  0.8 0.7 0.3  0.9 0.7 0.2  0.9 0.7 0.3  1 0.7 0.2  1 0.7 0.3  0.1 0.8 0.2  0.1 0.8 0.3  0 0.8 0.2  0 0.8 0.3  0.2 0.8 0.2  0.2 0.8 0.3  0.3 0.8 0.2  0.3 0.8 0.3  0.4 0.8 0.2  0.4 0.8 0.3  0.5 0.8 0.2  0.5 0.8 0.3  0.6 0.8 0.2  0.6 0.8 0.3  0.7 0.8 0.2  0.7 0.8 0.3  0.8 0.8 0.2  0.8 0.8 0.3  0.9 0.8 0.2  0.9 0.8 0.3  1 0.8 0.2  1 0.8 0.3  0.1 0.3 0.4  0.1 0.2 0.4  0 0.2 0.4  0 0.3 0.4  0.2 0.3 0.4  0.2 0.2 0.4  0.3 0.3 0.4  0.3 0.2 0.4  0.4 0.3 0.4  0.4 0.2 0.4  0.5 0.3 0.4  0.5 0.2 0.4  0.6 0.3 0.4  0.6 0.2 0.4  0.7 0.3 0.4  0.7 0.2 0.4  0.8 0.3 0.4  0.8 0.2 0.4  0.9 0.3 0.4  0.9 0.2 0.4  1 0.3 0.4  1 0.2 0.4  0.1 0.4 0.4  0 0.4 0.4  0.2 0.4 0.4  0.3 0.4 0.4  0.4 0.4 0.4  0.5 0.4 0.4  0.6 0.4 0.4  0.7 0.4 0.4  0.8 0.4 0.4  0.9 0.4 0.4  1 0.4 0.4  0.1 0.5 0.4  0 0.5 0.4  0.2 0.5 0.4  0.3 0.5 0.4  0.4 0.5 0.4  0.5 0.5 0.4  0.6 0.5 0.4  0.7 0.5 0.4  0.8 0.5 0.4  0.9 0.5 0.4  1 0.5 0.4  0.1 0.6 0.4  0 0.6 0.4  0.2 0.6 0.4  0.3 0.6 0.4  0.4 0.6 0.4  0.5 0.6 0.4  0.6 0.6 0.4  0.7 0.6 0.4  0.8 0.6 0.4  0.9 0.6 0.4  1 0.6 0.4  0.1 0.7 0.4  0 0.7 0.4  0.2 0.7 0.4  0.3 0.7 0.4  0.4 0.7 0.4  0.5 0.7 0.4  0.6 0.7 0.4  0.7 0.7 0.4  0.8 0.7 0.4  0.9 0.7 0.4  1 0.7 0.4  0.1 0.8 0.4  0 0.8 0.4  0.2 0.8 0.4  0.3 0.8 0.4  0.4 0.8 0.4  0.5 0.8 0.4  0.6 0.8 0.4  0.7 0.8 0.4  0.8 0.8 0.4  0.9 0.8 0.4  1 0.8 0.4  0.1 0.3 0.5  0.1 0.2 0.5  0 0.2 0.5  0 0.3 0.5  0.2 0.3 0.5  0.2 0.2 0.5  0.3 0.3 0.5  0.3 0.2 0.5  0.4 0.3 0.5  0.4 0.2 0.5  0.5 0.3 0.5  0.5 0.2 0.5  0.6 0.3 0.5  0.6 0.2 0.5  0.7 0.3 0.5  0.7 0.2 0.5  0.8 0.3 0.5  0.8 0.2 0.5  0.9 0.3 0.5  0.9 0.2 0.5  1 0.3 0.5  1 0.2 0.5  0.1 0.4 0.5  0 0.4 0.5  0.2 0.4 0.5  0.3 0.4 0.5  0.4 0.4 0.5  0.5 0.4 0.5  0.6 0.4 0.5  0.7 0.4 0.5  0.8 0.4 0.5  0.9 0.4 0.5  1 0.4 0.5  0.1 0.5 0.5  0 0.5 0.5  0.2 0.5 0.5  0.3 0.5 0.5  0.4 0.5 0.5  0.5 0.5 0.5  0.6 0.5 0.5  0.7 0.5 0.5  0.8 0.5 0.5  0.9 0.5 0.5  1 0.5 0.5  0.1 0.6 0.5  0 0.6 0.5  0.2 0.6 0.5  0.3 0.6 0.5  0.4 0.6 0.5  0.5 0.6 0.5  0.6 0.6 0.5  0.7 0.6 0.5  0.8 0.6 0.5  0.9 0.6 0.5  1 0.6 0.5  0.1 0.7 0.5  0 0.7 0.5  0.2 0.7 0.5  0.3 0.7 0.5  0.4 0.7 0.5  0.5 0.7 0.5  0.6 0.7 0.5  0.7 0.7 0.5  0.8 0.7 0.5  0.9 0.7 0.5  1 0.7 0.5  0.1 0.8 0.5  0 0.8 0.5  0.2 0.8 0.5  0.3 0.8 0.5  0.4 0.8 0.5  0.5 0.8 0.5  0.6 0.8 0.5  0.7 0.8 0.5  0.8 0.8 0.5  0.9 0.8 0.5  1 0.8 0.5  0.1 0.3 0.6  0.1 0.2 0.6  0 0.2 0.6  0 0.3 0.6  0.2 0.3 0.6  0.2 0.2 0.6  0.3 0.3 0.6  0.3 0.2 0.6  0.4 0.3 0.6  0.4 0.2 0.6  0.5 0.3 0.6  0.5 0.2 0.6  0.6 0.3 0.6  0.6 0.2 0.6  0.7 0.3 0.6  0.7 0.2 0.6  0.8 0.3 0.6  0.8 0.2 0.6  0.9 0.3 0.6  0.9 0.2 0.6  1 0.3 0.6  1 0.2 0.6  0.1 0.4 0.6  0 0.4 0.6  0.2 0.4 0.6  0.3 0.4 0.6  0.4 0.4 0.6  0.5 0.4 0.6  0.6 0.4 0.6  0.7 0.4 0.6  0.8 0.4 0.6  0.9 0.4 0.6  1 0.4 0.6  0.1 0.5 0.6  0 0.5 0.6  0.2 0.5 0.6  0.3 0.5 0.6  0.4 0.5 0.6  0.5 0.5 0.6  0.6 0.5 0.6  0.7 0.5 0.6  0.8 0.5 0.6  0.9 0.5 0.6  1 0.5 0.6  0.1 0.6 0.6  0 0.6 0.6  0.2 0.6 0.6  0.3 0.6 0.6  0.4 0.6 0.6  0.5 0.6 0.6  0.6 0.6 0.6  0.7 0.6 0.6  0.8 0.6 0.6  0.9 0.6 0.6  1 0.6 0.6  0.1 0.7 0.6  0 0.7 0.6  0.2 0.7 0.6  0.3 0.7 0.6  0.4 0.7 0.6  0.5 0.7 0.6  0.6 0.7 0.6  0.7 0.7 0.6  0.8 0.7 0.6  0.9 0.7 0.6  1 0.7 0.6  0.1 0.8 0.6  0 0.8 0.6  0.2 0.8 0.6  0.3 0.8 0.6  0.4 0.8 0.6  0.5 0.8 0.6  0.6 0.8 0.6  0.7 0.8 0.6  0.8 0.8 0.6  0.9 0.8 0.6  1 0.8 0.6  0.1 0.3 0.7  0.1 0.2 0.7  0 0.2 0.7  0 0.3 0.7  0.2 0.3 0.7  0.2 0.2 0.7  0.3 0.3 0.7  0.3 0.2 0.7  0.4 0.3 0.7  0.4 0.2 0.7  0.5 0.3 0.7  0.5 0.2 0.7  0.6 0.3 0.7  0.6 0.2 0.7  0.7 0.3 0.7  0.7 0.2 0.7  0.8 0.3 0.7  0.8 0.2 0.7  0.9 0.3 0.7  0.9 0.2 0.7  1 0.3 0.7  1 0.2 0.7  0.1 0.4 0.7  0 0.4 0.7  0.2 0.4 0.7  0.3 0.4 0.7  0.4 0.4 0.7  0.5 0.4 0.7  0.6 0.4 0.7  0.7 0.4 0.7  0.8 0.4 0.7  0.9 0.4 0.7  1 0.4 0.7  0.1 0.5 0.7  0 0.5 0.7  0.2 0.5 0.7  0.3 0.5 0.7  0.4 0.5 0.7  0.5 0.5 0.7  0.6 0.5 0.7  0.7 0.5 0.7  0.8 0.5 0.7  0.9 0.5 0.7  1 0.5 0.7  0.1 0.6 0.7  0 0.6 0.7  0.2 0.6 0.7  0.3 0.6 0.7  0.4 0.6 0.7  0.5 0.6 0.7  0.6 0.6 0.7  0.7 0.6 0.7  0.8 0.6 0.7  0.9 0.6 0.7  1 0.6 0.7  0.1 0.7 0.7  0 0.7 0.7  0.2 0.7 0.7  0.3 0.7 0.7  0.4 0.7 0.7  0.5 0.7 0.7  0.6 0.7 0.7  0.7 0.7 0.7  0.8 0.7 0.7  0.9 0.7 0.7  1 0.7 0.7  0.1 0.8 0.7  0 0.8 0.7  0.2 0.8 0.7  0.3 0.8 0.7  0.4 0.8 0.7  0.5 0.8 0.7  0.6 0.8 0.7  0.7 0.8 0.7  0.8 0.8 0.7  0.9 0.8 0.7  1 0.8 0.7  0.1 0.3 0.8  0.1 0.2 0.8  0 0.2 0.8  0 0.3 0.8  0.2 0.3 0.8  0.2 0.2 0.8  0.3 0.3 0.8  0.3 0.2 0.8  0.4 0.3 0.8  0.4 0.2 0.8  0.5 0.3 0.8  0.5 0.2 0.8  0.6 0.3 0.8  0.6 0.2 0.8  0.7 0.3 0.8  0.7 0.2 0.8  0.8 0.3 0.8  0.8 0.2 0.8  0.9 0.3 0.8  0.9 0.2 0.8  1 0.3 0.8  1 0.2 0.8  0.1 0.4 0.8  0 0.4 0.8  0.2 0.4 0.8  0.3 0.4 0.8  0.4 0.4 0.8  0.5 0.4 0.8  0.6 0.4 0.8  0.7 0.4 0.8  0.8 0.4 0.8  0.9 0.4 0.8  1 0.4 0.8  0.1 0.5 0.8  0 0.5 0.8  0.2 0.5 0.8  0.3 0.5 0.8  0.4 0.5 0.8  0.5 0.5 0.8  0.6 0.5 0.8  0.7 0.5 0.8  0.8 0.5 0.8  0.9 0.5 0.8  1 0.5 0.8  0.1 0.6 0.8  0 0.6 0.8  0.2 0.6 0.8  0.3 0.6 0.8  0.4 0.6 0.8  0.5 0.6 0.8  0.6 0.6 0.8  0.7 0.6 0.8  0.8 0.6 0.8  0.9 0.6 0.8  1 0.6 0.8  0.1 0.7 0.8  0 0.7 0.8  0.2 0.7 0.8  0.3 0.7 0.8  0.4 0.7 0.8  0.5 0.7 0.8  0.6 0.7 0.8  0.7 0.7 0.8  0.8 0.7 0.8  0.9 0.7 0.8  1 0.7 0.8  0.1 0.8 0.8  0 0.8 0.8  0.2 0.8 0.8  0.3 0.8 0.8  0.4 0.8 0.8  </DataArray>
</Points>
<Cells>
[...]
<PointData  Vectors="f_23"> 
<DataArray  type="Float64"  Name="f_23"  NumberOfComponents="3" format="ascii">3.5712853763314478e-03 6.4636699611738129e-04 4.4037583408732369e-04  3.5670309577402973e-03 8.7424728242453047e-04 5.9792902275373724e-04  3.6797679708726349e-03 5.9549076338147192e-04 6.4574794054158018e-04  1.9761989482082501e-01 5.9532927699387577e-04 5.9284667309526579e-04  3.6575770528580139e-03 9.2194803854617018e-04 4.3787924893647756e-04  3.6535596518605658e-03 8.1554773525940698e-04 2.1775333928251048e-04  3.7041949135823760e-03 3.3593681582450691e-04 6.1663835924075019e-04  1.9883133034893211e-01 5.6183738316579611e-04 4.7776809219713957e-04  3.7512292998135655e-03 1.1150544567706516e-03 7.0557736771743331e-04  3.8369683413636080e-03 8.3826355068378395e-04 8.2040194620581640e-04  1.9673231600959698e-01 1.0466351663212766e-03 9.7686313865102937e-04  3.8752544402354499e-03 1.2535915847604114e-03 6.1501406653014239e-04  3.5556051076109643e-03 1.2395716489294304e-03 7.4263097146277219e-04  3.7036540935743742e-03 9.9803685674098165e-04 8.5760026709913646e-04  1.9617963564240226e-01 1.1080424094995983e-03 1.0265891338543114e-03  3.8037102737883584e-03 1.4159022977772496e-03 7.8577581516899497e-04  2.7953919155759761e-03 1.2808052476360895e-03 7.7734851421726618e-04  3.0570929856998026e-03 1.0980803297070160e-03 8.4308279429511925e-04  1.9565510219583890e-01 1.0256059286080921e-03 9.5017539463169900e-04  3.2277107546635126e-03 1.4579545450403922e-03 1.0086171027795885e-03  1.2609967913767923e-03 1.2559328432078987e-03 8.6153731308527494e-04  1.6628791218467355e-03 1.1385583908639129e-03 8.4926928183661182e-04  1.9524882655391365e-01 9.6075699495197411e-04 8.6125055904499718e-04  1.8689550240499129e-03 1.4107963107979793e-03 1.3220102301097765e-03  -1.1139421939373091e-03 1.1724775505141871e-03 9.6567170254571581e-04  -5.8498191301576189e-04 1.1096006471648608e-03 8.7470290532572941e-04  1.9491432329165087e-01 9.9467984582461417e-04 7.8937543069008064e-04  -4.5672573869217330e-04 1.2839653339394791e-03 1.6556695935280110e-03  -4.0995612325391883e-03 1.0342942636456414e-03 9.0266217944275431e-04  -3.5278087244809474e-03 1.0017266570288880e-03 7.9298886439989075e-04  1.9453448481249871e-01 1.0848070131935722e-03 7.3616526438002102e-04  -3.5845480810343111e-03 1.1033476860460567e-03 1.6939182711028968e-03  -7.0019819825986630e-03 7.9532381651484707e-04 5.8258105454551360e-04  -6.6027068259144157e-03 7.9129907309466506e-04 5.0906118010233734e-04  1.9407872316678426e-01 1.0715316164165028e-03 8.2478107985161557e-04  -6.8390055341677573e-03 8.6745254066273496e-04 1.1448231773855929e-03  -8.7158020812087619e-03 3.0837969715096446e-04 1.8830454072713338e-04  -8.7501582053491553e-03 3.7416049709165154e-04 2.1529385100275137e-04  1.9353871287095861e-01 8.0034150322248786e-04 1.0872858198336720e-03  -8.9102573105155035e-03 4.4843207880621461e-04 4.9397466645407053e-04  -9.8121434193453351e-03 6.8881056632359456e-04 4.4432930744184155e-04  -9.7977746625200653e-03 5.3265900278758375e-04 3.0039964251897126e-04  1.9298427890178682e-01 7.2917205328989077e-04 6.8620083265908316e-04  -9.9978998223397685e-03 5.7883099158983359e-04 6.3895478790868302e-04  3.9510840126305300e-03 3.4431820760875439e-04 8.0273637235873984e-04  2.6431277218196242e-01 3.3306372046967489e-04 5.9707025771068678e-04  3.9847386590046502e-03 1.8360810461034703e-04 7.4309251002859043e-04  2.6610835452964304e-01 9.9823580529214816e-04 3.4807483650349844e-04  4.0345590080608784e-03 5.1718752859939202e-04 1.0450995051338595e-03  2.6310079236394629e-01 7.8434260743928468e-04 1.3649674509214106e-03  3.8387920074849451e-03 6.5724799960134713e-04 1.1147454968518590e-03  2.6236470870250012e-01 8.6835458035870207e-04 1.4832593174979537e-03  3.1548102238526752e-03 7.5705966200920519e-04 1.0920771364772860e-03  2.6180162816682706e-01 7.4291906046776142e-04 1.3110835193583577e-03  1.7187540218194428e-03 8.0972459914478094e-04 1.0490161234441768e-03  2.6161355976675171e-01 6.3464719542222084e-04 1.1165633076110997e-03  -5.9664692566437669e-04 8.0404548935522483e-04 9.9045354860036942e-04  2.6182466375727126e-01 6.5903109403413641e-04 9.6972350882354431e-04  -3.6374267422811242e-03 7.2942556967407768e-04 8.3578948425861994e-04  2.6233142914204760e-01 7.4169029581418135e-04 8.7457636928167182e-04  -6.8480428576216642e-03 5.6512025203658194e-04 5.0455835824212846e-04  2.6308136539451404e-01 6.5080143191574037e-04 9.2019475236633020e-04  -9.2486239658153401e-03 2.9961968896175401e-04 2.0460150277299262e-04  2.6403775865342655e-01 1.4483215345122147e-04 1.1166024706079089e-03  -1.0363679585400597e-02 3.7017656529933523e-04 2.5183506014048846e-04  2.6463392381201434e-01 5.7720374316960093e-04 3.8666227326943385e-04  4.1260761501679981e-03 2.5936681388128379e-04 8.2385280333496823e-04  2.8066074869192770e-01 1.6647357603252763e-04 9.7195237364893698e-04  4.1698952824532533e-03 1.6527143579241516e-04 7.2186930155532540e-04  2.8267188900541218e-01 7.7977258379307668e-04 6.7576018765843845e-04  4.1673166439635360e-03 3.8753768199520789e-04 1.1320751708589344e-03  2.7926929765472591e-01 4.3127690357036867e-04 2.0458777313251343e-03  3.9157782079451437e-03 4.6635029996403297e-04 1.2690479893560768e-03  2.7849125521795015e-01 4.0780027608100462e-04 2.1885063901140060e-03  3.1900166109430474e-03 4.8793696537031175e-04 1.2956754521062453e-03  2.7795693097093249e-01 1.8523732929171430e-04 1.7520190388029780e-03  1.7196341521193103e-03 4.5818532282340668e-04 1.2615530108478306e-03  2.7795596836222197e-01 -2.0854124676514403e-05 1.3250716434668672e-03  -6.3534716898795262e-04 3.9259562001015989e-04 1.1691427532137262e-03  2.7848091420345672e-01 -7.9034601081774119e-05 1.0938566353097129e-03  -3.7220778778211485e-03 3.1052720607046750e-04 9.7538475451223203e-04  2.7934045914987188e-01 -3.3593044611262765e-05 1.0196329945634725e-03  -6.9792126905131764e-03 2.1390071916436697e-04 5.9072297458571043e-04  2.8040626738375329e-01 -9.7240411520704324e-05 1.0533265632877006e-03  -9.5326081201086467e-03 1.3182901389707525e-04 2.3149465852017101e-04  2.8169273014518920e-01 -5.6303445615605630e-04 1.1161187829096481e-03  -1.0713789564906562e-02 1.0318207774751348e-04 2.8098355956130978e-04  2.8271857582396154e-01 4.2862847884512985e-06 4.9933382329133693e-04  4.2820757877415775e-03 2.7263809351146562e-04 7.5686471141348617e-04  2.6399573054685549e-01 -3.3173283117385191e-04 1.3345684709355746e-03  4.3457095845440465e-03 1.9252593404169032e-04 6.2554591892825155e-04  2.6596892013213158e-01 3.7689046143020202e-05 1.1264787400991187e-03  4.2599021007944330e-03 4.2907265868095940e-04 1.0987535249695189e-03  2.6249796525739461e-01 -2.0303120745627371e-04 2.5690455059948466e-03  3.9349434958399678e-03 4.8836972118287535e-04 1.3053998135055666e-03  2.6172539030218722e-01 -3.2294853734593932e-04 2.5879070308384268e-03  3.1491637161823959e-03 4.5184345921770618e-04 1.4040356281872933e-03  2.6120144454333138e-01 -5.3704302438355492e-04 1.8785915414082839e-03  1.6494303025991264e-03 3.4478895557413697e-04 1.4130170071657466e-03  2.6122121275338078e-01 -7.1879852117333071e-04 1.2591081892187625e-03  -7.0324827222273368e-04 2.0436088282872221e-04 1.3227364772943960e-03  2.6167292308838130e-01 -8.0286092448270889e-04 9.9758103787600918e-04  -3.7672699084002966e-03 8.3131793386319696e-05 1.1189486231354458e-03  2.6229684981444074e-01 -8.0185509984725847e-04 9.6058690557133117e-04  -6.9905972811268764e-03 1.2358456095506548e-05 7.2218588920035373e-04  2.6296983432806242e-01 -8.4460422497194254e-04 1.0102017823570312e-03  -9.5515332668850393e-03 -6.3007128079364949e-06 2.8647502725269512e-04  2.6389415495836877e-01 -1.2407027286955080e-03 9.8973701081101644e-04  -1.0757407906217960e-02 -8.1693080881704172e-05 3.5498992143376013e-04  2.6493664414387463e-01 -5.8409115881278726e-04 5.8966723406255655e-04  4.4894128072852455e-03 2.8438811717732210e-04 7.0877366197354304e-04  1.9730555420564785e-01 -7.3789814819909521e-04 1.1742833125562384e-03  4.5362829374487245e-03 1.8210133845106912e-04 5.4107853541633471e-04  1.9879422202617728e-01 -2.9425353250104854e-04 1.2561625153317084e-03  4.4075683366884997e-03 5.1282725122572868e-04 1.0465574586138466e-03  1.9592775489914271e-01 -6.0894662023876862e-04 2.0211485670851223e-03  4.0252084015737575e-03 6.2219555530493103e-04 1.2708822084043338e-03  1.9539590020447506e-01 -6.7130412769369683e-04 1.9461424818834794e-03  3.2033655702056870e-03 6.1177076063001414e-04 1.4048881231138823e-03  1.9494766078980622e-01 -7.4492830145552358e-04 1.3811076764314362e-03  1.6970867465457397e-03 5.0220936190633844e-04 1.4613742615634093e-03  1.9472474712329829e-01 -7.6195192072022952e-04 9.0834424384858635e-04  -6.3533168681711885e-04 3.4212013980260592e-04 1.4071764588347712e-03  1.9447230720371397e-01 -7.7931420724376970e-04 7.8909532400019849e-04  -3.6909258861151048e-03 1.9142718027002586e-04 1.2294262257494602e-03  1.9393791041575956e-01 -8.3083446279055124e-04 8.7388444961594236e-04  -6.9972422457836624e-03 9.3397443991646603e-05 8.5963932483872454e-04  1.9311612732682054e-01 -9.1560756705216329e-04 9.3792068741595019e-04  -9.4442359547783628e-03 4.1205023699839010e-05 3.4494618650447603e-04  1.9269604691100092e-01 -1.2076837941195101e-03 8.0324400590488178e-04  -1.0668597826251510e-02 -3.1601745142576762e-05 4.7348886063572202e-04  1.9331616997938791e-01 -8.2953382048187193e-04 5.6889164801487502e-04  4.3700435280823622e-03 2.4553511723961679e-04 7.8422182353968608e-04  4.4263660059152901e-03 1.7431906778566286e-04 5.1282897536346719e-04  4.1165940302369496e-03 3.2155796435071347e-04 4.1017296760398727e-04  4.4415291274861003e-03 1.6100049732438256e-04 3.3258021950699181e-04  4.5087012524024587e-03 5.1569398815631362e-04 1.1876430728202405e-03  4.2505703718740120e-03 3.8579923923824671e-04 9.4206620237530963e-04  4.3028445077503618e-03 6.8251328901518672e-04 1.4175754049463652e-03  4.2494115882551935e-03 5.4624017250011795e-04 1.1789563070183286e-03  3.7399203940668415e-03 7.3290040668127674e-04 1.4351829478608355e-03  3.9637505880200799e-03 6.0215995194189771e-04 1.3306225253349141e-03  2.5614426009052068e-03 6.7716895973246041e-04 1.3239345410450754e-03  3.1346051746182673e-03 5.5614562824965550e-04 1.4303134786477574e-03  5.4693568262904532e-04 5.5633985876331771e-04 1.1509458476885895e-03  1.4841387951198396e-03 4.3111322647524595e-04 1.4895679555864544e-03  -2.2922654164049031e-03 4.0984896630974146e-04 9.8582032291967092e-04  -1.0880897962230289e-03 2.7411621456872030e-04 1.4854133906896478e-03  -5.6176050747145457e-03 2.6312554292201302e-04 7.9404315995968485e-04  -4.3464149085152099e-03 1.4351619936873211e-04 1.3086284699542279e-03  -8.8730247184261556e-03 1.7711127106342318e-04 4.5865779525676545e-04  -7.7193153334793700e-03 5.0689976484037200e-05 8.3862384169477500e-04  -1.0559557907231161e-02 4.5820448043684048e-05 5.1855863653235332e-04  -9.4886079270518151e-03 -1.7962472068329314e-05 5.5930890408972421e-04  2.6425833569410384e-01 4.3791804050573573e-04 5.0911595595611861e-04  3.9090640875730749e-03 1.0781353232175051e-03 3.1683438677043051e-04  3.8899972263097215e-03 9.4312481528127635e-04 1.4689863592297995e-04  2.6600009591891871e-01 2.8150675770378085e-04 1.0435269807084827e-03  2.6307747422800243e-01 1.2610988534237032e-03 8.9088330931167987e-04  4.1382445011973875e-03 1.4840969622374933e-03 5.3115058803289449e-04  2.6235213450064698e-01 1.3574257018456042e-03 9.8729088895442227e-04  4.1169317038048502e-03 1.6861286955565391e-03 8.2233739624683561e-04  2.6179605640747683e-01 1.1636673223437695e-03 8.5229996995011778e-04  3.6506888543028962e-03 1.7277875634587544e-03 1.2391684988411736e-03  2.6164122022428121e-01 1.0532828483047776e-03 5.6228534034966039e-04  2.3600380552850310e-03 1.6324725889963435e-03 1.8309946784276128e-03  2.6197697201148407e-01 1.2097072284869162e-03 5.1941732936954838e-05  -1.2403600450899970e-04 1.4014464263039372e-03 2.5517309745265323e-03  2.6277469037389789e-01 1.5814015815049237e-03 -6.8523139949596952e-04  -3.7295189380440815e-03 1.1037766275976994e-03 3.0120429719587174e-03  2.6393475950501089e-01 1.8555417655119226e-03 -9.5223156156710824e-04  -7.6483432402238826e-03 8.7916786756309768e-04 1.9814317997277281e-03  2.6532296732744670e-01 1.4716351873240462e-03 -4.3482343415991243e-04  -1.0170596643912677e-02 4.2860813246171757e-04 1.0542530559912468e-03  2.6659497210780342e-01 5.9718684943636390e-04 -1.5994868034473642e-03  -1.1220903408314598e-02 6.1740680757333517e-04 1.0255011145170762e-03  3.6751328212726986e-01 2.7909272065594051e-04 6.4909106090041164e-04  3.6897197628166151e-01 1.0990971700611200e-03 1.3655729676658006e-03  3.6600209395252370e-01 1.2886155302389965e-03 1.5677219711514535e-03  3.6495536947955148e-01 1.4896389239812612e-03 1.7731523351644336e-03  3.6436228861149189e-01 1.1571702609255389e-03 1.3752602455977599e-03  3.6467007469625234e-01 8.9638747016998672e-04 7.3632303074661011e-04  3.6609731212757934e-01 1.0309018975520039e-03 -9.1281863107595400e-05  3.6860234500656025e-01 1.4453689859061150e-03 -1.1109315185920848e-03  3.7207499315797826e-01 1.6341086539086328e-03 -1.4312135153292734e-03  3.7603367601448928e-01 9.0819482540661347e-04 -8.3230310901293058e-04  3.7839958187893630e-01 1.1750035255112725e-03 -1.7260191294215662e-03  3.9410588767044397e-01 2.3522098779003004e-04 1.3980168972485049e-03  3.9538834978264015e-01 9.3124230016629220e-04 2.2348897281215000e-03  3.9249735599807256e-01 9.8420144451088045e-04 2.8757070057996922e-03  3.9127138909439335e-01 1.0471020023998044e-03 3.2625602167039446e-03  3.9063455422174537e-01 5.6126547751022041e-04 2.2191258930512833e-03  3.9132309452357222e-01 7.9053971850841546e-05 1.0654111845475409e-03  3.9345489134078010e-01 2.8277576905691232e-05 6.8443403457437864e-05  3.9676069574770451e-01 3.2500409496681099e-04 -8.1951641141451449e-04  4.0092835239901964e-01 5.0400365979145199e-04 -9.2343503767232566e-04  4.0537850009021426e-01 -1.6292152333625688e-04 -4.4718990373196743e-04  4.0806331012824643e-01 3.8567414498574733e-04 -9.8014546083436500e-04  3.6717302341913360e-01 -4.6403118833416939e-04 2.4862848448755281e-03  3.6823949195296851e-01 -6.0660074551595554e-05 3.3620639796663188e-03  3.6549047787937416e-01 -6.4930014479066753e-06 4.2150996328161180e-03  3.6410348115322921e-01 -1.3967049173933618e-04 4.4949456209750762e-03  3.6340790176296928e-01 -5.7029296230272624e-04 2.5705524483095733e-03  3.6418594151310435e-01 -1.0202813788661559e-03 1.0018171833455168e-03  3.6627751352118115e-01 -1.1780363467211333e-03 8.4807079968286526e-05  3.6923121326804509e-01 -1.0664814207730210e-03 -4.8422199308295404e-04  3.7268904674703990e-01 -9.6421465579539089e-04 -5.5513619168282794e-04  3.7630497442796607e-01 -1.5149227860145268e-03 -1.1904212628618384e-04  3.7883162618299737e-01 -7.2055161136895497e-04 -3.7593285564959506e-04  2.6423129739679097e-01 -1.0423866204263925e-03 1.7278191535525283e-03  2.6467946668798342e-01 -3.6220931596659479e-04 3.3904572589358441e-03  2.6270717306151248e-01 -8.8291003272593729e-04 3.0123662664120342e-03  2.6158286649937568e-01 -1.1516824588571337e-03 2.9452708676413440e-03  2.6100252935266322e-01 -1.4402678322657646e-03 1.1822995096026174e-03  2.6146702056440579e-01 -1.4111744667454750e-03 9.2753961175573199e-05  2.6235480402734579e-01 -1.3713738229807692e-03 -6.9252315910126272e-05  2.6321288732092130e-01 -1.3961265752527967e-03 1.3647635939727907e-05  2.6396981835850142e-01 -1.4637206786399203e-03 1.2973607252178768e-04  2.6505837856064679e-01 -1.8114434841816668e-03 2.4824440688379662e-04  2.6683401174415661e-01 -1.1183104121965770e-03 -3.0434367944344735e-06  4.7324329030198984e-03 2.2787454293031640e-05 3.6592838423571711e-05  4.7876014769393689e-03 1.2703826306122538e-05 6.5189470936529481e-05  4.5132506943823068e-03 1.0221555167499114e-04 3.4612292185436398e-04  4.3877034344113192e-03 2.1978516112567599e-04 5.5460838432684699e-04  4.2173840697083201e-03 3.3333910683405027e-04 9.0973835221060389e-04  3.5574985528813727e-03 4.4496793176386913e-04 1.3369397163044705e-03  1.8393189181577397e-03 4.1635058501436205e-04 1.8863733202221932e-03  -9.6730165433935218e-04 2.7487367586194456e-04 2.2986577797562422e-03  -4.5227852414072636e-03 1.1869630435731877e-04 2.2575380801200971e-03  -8.2578451656122511e-03 2.6819316843838098e-05 1.6049326954143111e-03  -1.0023060678901097e-02 7.2424845578509904e-05 1.1710857162704372e-03  2.8065716640155641e-01 7.6497423134581596e-04 4.8032702795188729e-04  4.1225767864374275e-03 1.0849117096877275e-03 2.8798757310563003e-04  4.0819406021316111e-03 9.0815950122784673e-04 1.7516171411408710e-04  2.8259455490691576e-01 5.5760346432842580e-04 9.5775900530786144e-04  2.7934191664372643e-01 1.9089206339514629e-03 7.0005731760390164e-04  4.3989147243989214e-03 1.5542019999459876e-03 4.9426121985627345e-04  2.7860439631997497e-01 2.0522492664112519e-03 7.3671870260014628e-04  4.4679576521221955e-03 1.8272202251271926e-03 7.5088981466174152e-04  2.7805743353230911e-01 1.6526711497357720e-03 5.5859125113687171e-04  4.1776936323694369e-03 1.9299369921504811e-03 1.1188898133532219e-03  2.7798904239961969e-01 1.4500737443265206e-03 1.4112006303681210e-04  3.1185742384179059e-03 1.8518021724790788e-03 1.6986036398696947e-03  2.7853739559144264e-01 1.7949754299849590e-03 -8.1768934879754057e-04  6.6561671206951290e-04 1.5433112401195437e-03 2.5717352379305085e-03  2.7988634600671197e-01 2.6696515086601143e-03 -2.7509891755494358e-03  -3.8437949541571276e-03 1.0560519991791486e-03 3.4982810295382701e-03  2.8170201608169665e-01 3.7793867682716278e-03 -5.0133695762895093e-03  -8.7667198497000508e-03 8.4304612670630438e-04 3.1678943135922261e-03  2.8431109910153218e-01 3.4323429617732449e-03 -4.8416348746280107e-03  -1.2244325998973224e-02 3.7124717740420819e-04 7.1288115061409081e-04  2.8758472335047464e-01 2.7223096533388193e-03 -8.8043344460971649e-03  -1.3710197828819760e-02 6.9354684392888063e-04 1.8456669077853750e-03  3.9418519838940880e-01 9.6926927004553100e-04 7.2584153627593009e-04  3.9544210906658406e-01 1.9016839976917458e-03 1.3224842287949785e-03  3.9263285392956532e-01 2.5577313659665393e-03 1.3781076710023910e-03  3.9143946146458602e-01 2.9748679445080256e-03 1.4642904233648894e-03  3.9077644014965562e-01 2.0765785875046495e-03 9.3595076086058315e-04  3.9134575009469219e-01 1.4837652964339960e-03 -3.1499374381211331e-06  3.9335745929803045e-01 1.8054941949144484e-03 -1.5067952955248804e-03  3.9702640978517995e-01 2.9136520042408421e-03 -4.0708718620062652e-03  4.0218153628918529e-01 4.0951606134330366e-03 -6.6829903978108552e-03  4.0884955042581989e-01 3.7699017501156575e-03 -6.2464456381795012e-03  4.1421964727874738e-01 4.4629272874031952e-03 -8.6557624903040187e-03  4.2395310337860970e-01 1.2007788064079131e-03 1.7423978535342972e-03  4.2479547105890758e-01 2.0101987032628693e-03 2.4573072727159082e-03  4.2256462824366886e-01 2.6749793663964887e-03 3.1068703142460678e-03  4.2089658616794995e-01 3.0283145547795706e-03 3.4682086610095678e-03  4.1983639340313123e-01 1.7033349184176127e-03 2.0662977626913653e-03  4.2118696812271283e-01 5.2357680802341932e-04 3.4797314791658519e-04  4.2451440507330057e-01 4.4773588878985958e-04 -1.3597992862714452e-03  4.2956477876307264e-01 1.2763080229469287e-03 -3.6364242656204463e-03  4.3600978982921679e-01 2.1551162412810536e-03 -5.4144623294819184e-03  4.4352298344773428e-01 1.8247652198382259e-03 -4.4993335246728871e-03  4.4927983500236673e-01 2.7543027177109091e-03 -5.9154814654510633e-03  3.9411202062714235e-01 -1.2310144563607164e-04 3.4864375532658153e-03  3.9420072044269844e-01 4.1045904391389488e-04 3.7074827007701691e-03  3.9243988412489650e-01 1.1808551583657029e-03 6.1762528178216057e-03  3.9041850636215381e-01 1.2959314220667480e-03 6.2751088591623825e-03  3.8885020026557743e-01 2.2483377950750238e-04 2.9223805192025954e-03  3.9084291797196963e-01 -1.0518254093628684e-03 4.8672438300593020e-04  3.9465702191046792e-01 -1.4064942061261018e-03 -1.0852637091301202e-03  3.99