<?xml version="1.0"?>
<VTKFile type="UnstructuredGrid"  version="0.1"  >
<UnstructuredGrid>
<Piece  NumberOfPoints="539" NumberOfCells="2160">
<Points>
<DataArray  type="Float64"  NumberOfComponents="3"  format="ascii">0 0.2 0.2  0.1 0.2 0.2  0.1 0.3 0.2  0.1 0.3 0.3  0.1 0.2 0.3  0 0.2 0.3  0 0.3 0.2  0 0.3 0.3  0.2 0.2 0.2  0.2 0.3 0.2  0.2 0.3 0.3  0.2 0.2 0.3  0.3 0.2 0.2  0.3 0.3 0.2  0.3 0.3 0.3  0.3 0.2 0.3  0.4 0.2 0.2  0.4 0.3 0.2  0.4 0.3 0.3  0.4 0.2 0.3  0.5 0.2 0.2  0.5 0.3 0.2  0.5 0.3 0.3  0.5 0.2 0.3  0.6 0.2 0.2  0.6 0.3 0.2  0.6 0.3 0.3  0.6 0.2 0.3  0.7 0.2 0.2  0.7 0.3 0.2  0.7 0.3 0.3  0.7 0.2 0.3  0.8 0.2 0.2  0.8 0.3 0.2  0.8 0.3 0.3  0.8 0.2 0.3  0.9 0.2 0.2  0.9 0.3 0.2  0.9 0.3 0.3  0.9 0.2 0.3  1 0.2 0.2  1 0.3 0.2  1 0.3 0.3  1 0.2 0.3  0.1 0.4 0.2  0.1 0.4 0.3  0 0.4 0.2  0 0.4 0.3  0.2 0.4 0.2  0.2 0.4 0.3  0.3 0.4 0.2  0.3 0.4 0.3  0.4 0.4 0.2  0.4 0.4 0.3  0.5 0.4 0.2  0.5 0.4 0.3  0.6 0.4 0.2  0.6 0.4 0.3  0.7 0.4 0.2  0.7 0.4 0.3  0.8 0.4 0.2  0.8 0.4 0.3  0.9 0.4 0.2  0.9 0.4 0.3  1 0.4 0.2  1 0.4 0.3  0.1 0.5 0.2  0.1 0.5 0.3  0 0.5 0.2  0 0.5 0.3  0.2 0.5 0.2  0.2 0.5 0.3  0.3 0.5 0.2  0.3 0.5 0.3  0.4 0.5 0.2  0.4 0.5 0.3  0.5 0.5 0.2  0.5 0.5 0.3  0.6 0.5 0.2  0.6 0.5 0.3  0.7 0.5 0.2  0.7 0.5 0.3  0.8 0.5 0.2  0.8 0.5 0.3  0.9 0.5 0.2  0.9 0.5 0.3  1 0.5 0.2  1 0.5 0.3  0.1 0.6 0.2  0.1 0.6 0.3  0 0.6 0.2  0 0.6 0.3  0.2 0.6 0.2  0.2 0.6 0.3  0.3 0.6 0.2  0.3 0.6 0.3  0.4 0.6 0.2  0.4 0.6 0.3  0.5 0.6 0.2  0.5 0.6 0.3  0.6 0.6 0.2  0.6 0.6 0.3  0.7 0.6 0.2  0.7 0.6 0.3  0.8 0.6 0.2  0.8 0.6 0.3  0.9 0.6 0.2  0.9 0.6 0.3  1 0.6 0.2  1 0.6 0.3  0.1 0.7 0.2  0.1 0.7 0.3  0 0.7 0.2  0 0.7 0.3  0.2 0.7 0.2  0.2 0.7 0.3  0.3 0.7 0.2  0.3 0.7 0.3  0.4 0.7 0.2  0.4 0.7 0.3  0.5 0.7 0.2  0.5 0.7 0.3  0.6 0.7 0.2  0.6 0.7 0.3  0.7 0.7 0.2  0.7 0.7 0.3  0.8 0.7 0.2  0.8 0.7 0.3  0.9 0.7 0.2  0.9 0.7 0.3  1 0.7 0.2  1 0.7 0.3  0.1 0.8 0.2  0.1 0.8 0.3  0 0.8 0.2  0 0.8 0.3  0.2 0.8 0.2  0.2 0.8 0.3  0.3 0.8 0.2  0.3 0.8 0.3  0.4 0.8 0.2  0.4 0.8 0.3  0.5 0.8 0.2  0.5 0.8 0.3  0.6 0.8 0.2  0.6 0.8 0.3  0.7 0.8 0.2  0.7 0.8 0.3  0.8 0.8 0.2  0.8 0.8 0.3  0.9 0.8 0.2  0.9 0.8 0.3  1 0.8 0.2  1 0.8 0.3  0.1 0.3 0.4  0.1 0.2 0.4  0 0.2 0.4  0 0.3 0.4  0.2 0.3 0.4  0.2 0.2 0.4  0.3 0.3 0.4  0.3 0.2 0.4  0.4 0.3 0.4  0.4 0.2 0.4  0.5 0.3 0.4  0.5 0.2 0.4  0.6 0.3 0.4  0.6 0.2 0.4  0.7 0.3 0.4  0.7 0.2 0.4  0.8 0.3 0.4  0.8 0.2 0.4  0.9 0.3 0.4  0.9 0.2 0.4  1 0.3 0.4  1 0.2 0.4  0.1 0.4 0.4  0 0.4 0.4  0.2 0.4 0.4  0.3 0.4 0.4  0.4 0.4 0.4  0.5 0.4 0.4  0.6 0.4 0.4  0.7 0.4 0.4  0.8 0.4 0.4  0.9 0.4 0.4  1 0.4 0.4  0.1 0.5 0.4  0 0.5 0.4  0.2 0.5 0.4  0.3 0.5 0.4  0.4 0.5 0.4  0.5 0.5 0.4  0.6 0.5 0.4  0.7 0.5 0.4  0.8 0.5 0.4  0.9 0.5 0.4  1 0.5 0.4  0.1 0.6 0.4  0 0.6 0.4  0.2 0.6 0.4  0.3 0.6 0.4  0.4 0.6 0.4  0.5 0.6 0.4  0.6 0.6 0.4  0.7 0.6 0.4  0.8 0.6 0.4  0.9 0.6 0.4  1 0.6 0.4  0.1 0.7 0.4  0 0.7 0.4  0.2 0.7 0.4  0.3 0.7 0.4  0.4 0.7 0.4  0.5 0.7 0.4  0.6 0.7 0.4  0.7 0.7 0.4  0.8 0.7 0.4  0.9 0.7 0.4  1 0.7 0.4  0.1 0.8 0.4  0 0.8 0.4  0.2 0.8 0.4  0.3 0.8 0.4  0.4 0.8 0.4  0.5 0.8 0.4  0.6 0.8 0.4  0.7 0.8 0.4  0.8 0.8 0.4  0.9 0.8 0.4  1 0.8 0.4  0.1 0.3 0.5  0.1 0.2 0.5  0 0.2 0.5  0 0.3 0.5  0.2 0.3 0.5  0.2 0.2 0.5  0.3 0.3 0.5  0.3 0.2 0.5  0.4 0.3 0.5  0.4 0.2 0.5  0.5 0.3 0.5  0.5 0.2 0.5  0.6 0.3 0.5  0.6 0.2 0.5  0.7 0.3 0.5  0.7 0.2 0.5  0.8 0.3 0.5  0.8 0.2 0.5  0.9 0.3 0.5  0.9 0.2 0.5  1 0.3 0.5  1 0.2 0.5  0.1 0.4 0.5  0 0.4 0.5  0.2 0.4 0.5  0.3 0.4 0.5  0.4 0.4 0.5  0.5 0.4 0.5  0.6 0.4 0.5  0.7 0.4 0.5  0.8 0.4 0.5  0.9 0.4 0.5  1 0.4 0.5  0.1 0.5 0.5  0 0.5 0.5  0.2 0.5 0.5  0.3 0.5 0.5  0.4 0.5 0.5  0.5 0.5 0.5  0.6 0.5 0.5  0.7 0.5 0.5  0.8 0.5 0.5  0.9 0.5 0.5  1 0.5 0.5  0.1 0.6 0.5  0 0.6 0.5  0.2 0.6 0.5  0.3 0.6 0.5  0.4 0.6 0.5  0.5 0.6 0.5  0.6 0.6 0.5  0.7 0.6 0.5  0.8 0.6 0.5  0.9 0.6 0.5  1 0.6 0.5  0.1 0.7 0.5  0 0.7 0.5  0.2 0.7 0.5  0.3 0.7 0.5  0.4 0.7 0.5  0.5 0.7 0.5  0.6 0.7 0.5  0.7 0.7 0.5  0.8 0.7 0.5  0.9 0.7 0.5  1 0.7 0.5  0.1 0.8 0.5  0 0.8 0.5  0.2 0.8 0.5  0.3 0.8 0.5  0.4 0.8 0.5  0.5 0.8 0.5  0.6 0.8 0.5  0.7 0.8 0.5  0.8 0.8 0.5  0.9 0.8 0.5  1 0.8 0.5  0.1 0.3 0.6  0.1 0.2 0.6  0 0.2 0.6  0 0.3 0.6  0.2 0.3 0.6  0.2 0.2 0.6  0.3 0.3 0.6  0.3 0.2 0.6  0.4 0.3 0.6  0.4 0.2 0.6  0.5 0.3 0.6  0.5 0.2 0.6  0.6 0.3 0.6  0.6 0.2 0.6  0.7 0.3 0.6  0.7 0.2 0.6  0.8 0.3 0.6  0.8 0.2 0.6  0.9 0.3 0.6  0.9 0.2 0.6  1 0.3 0.6  1 0.2 0.6  0.1 0.4 0.6  0 0.4 0.6  0.2 0.4 0.6  0.3 0.4 0.6  0.4 0.4 0.6  0.5 0.4 0.6  0.6 0.4 0.6  0.7 0.4 0.6  0.8 0.4 0.6  0.9 0.4 0.6  1 0.4 0.6  0.1 0.5 0.6  0 0.5 0.6  0.2 0.5 0.6  0.3 0.5 0.6  0.4 0.5 0.6  0.5 0.5 0.6  0.6 0.5 0.6  0.7 0.5 0.6  0.8 0.5 0.6  0.9 0.5 0.6  1 0.5 0.6  0.1 0.6 0.6  0 0.6 0.6  0.2 0.6 0.6  0.3 0.6 0.6  0.4 0.6 0.6  0.5 0.6 0.6  0.6 0.6 0.6  0.7 0.6 0.6  0.8 0.6 0.6  0.9 0.6 0.6  1 0.6 0.6  0.1 0.7 0.6  0 0.7 0.6  0.2 0.7 0.6  0.3 0.7 0.6  0.4 0.7 0.6  0.5 0.7 0.6  0.6 0.7 0.6  0.7 0.7 0.6  0.8 0.7 0.6  0.9 0.7 0.6  1 0.7 0.6  0.1 0.8 0.6  0 0.8 0.6  0.2 0.8 0.6  0.3 0.8 0.6  0.4 0.8 0.6  0.5 0.8 0.6  0.6 0.8 0.6  0.7 0.8 0.6  0.8 0.8 0.6  0.9 0.8 0.6  1 0.8 0.6  0.1 0.3 0.7  0.1 0.2 0.7  0 0.2 0.7  0 0.3 0.7  0.2 0.3 0.7  0.2 0.2 0.7  0.3 0.3 0.7  0.3 0.2 0.7  0.4 0.3 0.7  0.4 0.2 0.7  0.5 0.3 0.7  0.5 0.2 0.7  0.6 0.3 0.7  0.6 0.2 0.7  0.7 0.3 0.7  0.7 0.2 0.7  0.8 0.3 0.7  0.8 0.2 0.7  0.9 0.3 0.7  0.9 0.2 0.7  1 0.3 0.7  1 0.2 0.7  0.1 0.4 0.7  0 0.4 0.7  0.2 0.4 0.7  0.3 0.4 0.7  0.4 0.4 0.7  0.5 0.4 0.7  0.6 0.4 0.7  0.7 0.4 0.7  0.8 0.4 0.7  0.9 0.4 0.7  1 0.4 0.7  0.1 0.5 0.7  0 0.5 0.7  0.2 0.5 0.7  0.3 0.5 0.7  0.4 0.5 0.7  0.5 0.5 0.7  0.6 0.5 0.7  0.7 0.5 0.7  0.8 0.5 0.7  0.9 0.5 0.7  1 0.5 0.7  0.1 0.6 0.7  0 0.6 0.7  0.2 0.6 0.7  0.3 0.6 0.7  0.4 0.6 0.7  0.5 0.6 0.7  0.6 0.6 0.7  0.7 0.6 0.7  0.8 0.6 0.7  0.9 0.6 0.7  1 0.6 0.7  0.1 0.7 0.7  0 0.7 0.7  0.2 0.7 0.7  0.3 0.7 0.7  0.4 0.7 0.7  0.5 0.7 0.7  0.6 0.7 0.7  0.7 0.7 0.7  0.8 0.7 0.7  0.9 0.7 0.7  1 0.7 0.7  0.1 0.8 0.7  0 0.8 0.7  0.2 0.8 0.7  0.3 0.8 0.7  0.4 0.8 0.7  0.5 0.8 0.7  0.6 0.8 0.7  0.7 0.8 0.7  0.8 0.8 0.7  0.9 0.8 0.7  1 0.8 0.7  0.1 0.3 0.8  0.1 0.2 0.8  0 0.2 0.8  0 0.3 0.8  0.2 0.3 0.8  0.2 0.2 0.8  0.3 0.3 0.8  0.3 0.2 0.8  0.4 0.3 0.8  0.4 0.2 0.8  0.5 0.3 0.8  0.5 0.2 0.8  0.6 0.3 0.8  0.6 0.2 0.8  0.7 0.3 0.8  0.7 0.2 0.8  0.8 0.3 0.8  0.8 0.2 0.8  0.9 0.3 0.8  0.9 0.2 0.8  1 0.3 0.8  1 0.2 0.8  0.1 0.4 0.8  0 0.4 0.8  0.2 0.4 0.8  0.3 0.4 0.8  0.4 0.4 0.8  0.5 0.4 0.8  0.6 0.4 0.8  0.7 0.4 0.8  0.8 0.4 0.8  0.9 0.4 0.8  1 0.4 0.8  0.1 0.5 0.8  0 0.5 0.8  0.2 0.5 0.8  0.3 0.5 0.8  0.4 0.5 0.8  0.5 0.5 0.8  0.6 0.5 0.8  0.7 0.5 0.8  0.8 0.5 0.8  0.9 0.5 0.8  1 0.5 0.8  0.1 0.6 0.8  0 0.6 0.8  0.2 0.6 0.8  0.3 0.6 0.8  0.4 0.6 0.8  0.5 0.6 0.8  0.6 0.6 0.8  0.7 0.6 0.8  0.8 0.6 0.8  0.9 0.6 0.8  1 0.6 0.8  0.1 0.7 0.8  0 0.7 0.8  0.2 0.7 0.8  0.3 0.7 0.8  0.4 0.7 0.8  0.5 0.7 0.8  0.6 0.7 0.8  0.7 0.7 0.8  0.8 0.7 0.8  0.9 0.7 0.8  1 0.7 0.8  0.1 0.8 0.8  0 0.8 0.8  0.2 0.8 0.8  0.3 0.8 0.8  0.4 0.8 0.8  0.5 0.8 0.8  0.6 0.8 0.8  0.7 0.8 0.8  0.8 0.8 0.8  0.9 0.8 0.8  1 0.8 0.8  </DataArray>
</Points>
<Cells>
[...]
<PointData  Vectors="f_23"> 
<DataArray  type="Float64"  Name="f_23"  NumberOfComponents="3" format="ascii">2.0890274646078044e-04 -7.4935898762534705e-05 2.5053776325838960e-05  2.2439255727035840e-04 -1.0015098191479540e-04 3.3123965969428769e-05  2.0500340735450285e-04 -6.7947753007774751e-05 2.4092698343250918e-05  9.5067518990505695e-02 -5.7777634223766711e-05 -1.9518112435857170e-04  2.5051822611580569e-04 -9.8279241661565066e-05 4.0643674139871534e-05  2.3584128296067579e-04 -6.9782029178204371e-05 2.8863409839420147e-05  1.8798115621752553e-04 -4.3343889104460440e-05 2.1551782870041113e-05  9.4794400778120042e-02 -1.1929672125223844e-04 -4.4308696190605782e-04  2.1272774939079897e-04 -1.4520204516074538e-04 6.2747164026413682e-05  2.0459167162736725e-04 -1.0729903701098858e-04 4.6097133829013548e-05  9.5510984445957584e-02 1.3785018147148128e-06 -1.0321982599109482e-04  2.5534070776009207e-04 -1.5049942603810232e-04 7.8817932356740818e-05  1.6345770282461778e-04 -1.7148250612418454e-04 1.1543524370452738e-04  1.6442951882466607e-04 -1.3059847933300433e-04 8.5874142343493029e-05  9.5435921405417984e-02 6.4950167525941802e-05 -8.9349576279267268e-05  2.3099103747335916e-04 -1.9036749706628420e-04 1.4735556584337541e-04  7.4877417481799627e-05 -1.7700616501261634e-04 1.9165953998754397e-04  9.0512128765559660e-05 -1.3695628301442365e-04 1.4748248850558887e-04  9.5442589256803836e-02 1.3825397882241748e-04 -1.3633051287965622e-04  1.6447746832445759e-04 -2.1444802010052447e-04 2.5533610227642154e-04  -6.0361446196959914e-05 -1.5578994967040013e-04 2.7518673763955720e-04  -2.6162894737959854e-05 -1.2325473814164424e-04 2.2212059977411343e-04  9.5528585295543159e-02 2.2865075258797146e-04 -2.2551909371429629e-04  2.9382990674125187e-05 -2.1215025107041737e-04 3.9214601781189715e-04  -2.1878264191626073e-04 -1.0845937250069362e-04 3.2706781582473741e-04  -1.7421288635291688e-04 -8.9484725716149093e-05 2.8041589333320830e-04  9.5674443850878768e-02 3.1511686800252245e-04 -3.3044293600510444e-04  -1.7649990795914438e-04 -1.7081314995774896e-04 5.0869125021533968e-04  -3.1808284994150956e-04 -5.5506455527310649e-05 2.9439264145585592e-04  -2.9115488594657805e-04 -4.7594572994037775e-05 2.7254614581922402e-04  9.5817048200114455e-02 3.5205799275184402e-04 -3.7134455660946730e-04  -3.7068532091695929e-04 -1.0095453240003483e-04 5.1219359590903813e-04  -2.4521920952559482e-04 -2.8089923340397605e-05 1.7347014130840452e-04  -2.6379623368616260e-04 -2.0290917356177241e-05 1.7449520478053494e-04  9.5729244440541220e-02 2.8893611846149842e-04 -1.6617678767263824e-04  -3.9830705304886080e-04 -5.1032755897105734e-05 3.2698687232309850e-04  -6.6098005778712717e-05 -8.2014124922784561e-06 6.8783374651131850e-05  -8.9353148555676844e-05 -9.5790894537070718e-06 8.2222307405076749e-05  9.5073980385627366e-02 7.0963958194361791e-05 1.3499856709868065e-04  -2.2542779701862031e-04 -1.4529308124544806e-05 1.3963966218875920e-04  3.7474662118855614e-05 -1.0446859755003412e-05 1.0376475695711359e-04  4.1659335274591546e-05 -1.3330745837766533e-05 9.6992781053824911e-05  9.3591577325755543e-02 -2.4702482478733618e-04 -8.7820630549890024e-04  -6.5172077988591705e-05 -1.6972593879271890e-05 1.4519979877979645e-04  1.6883380568812886e-04 -3.3294571999616695e-05 2.3895881739086131e-05  1.2245877223479731e-01 1.7318549501524029e-04 -2.8045655526740785e-04  1.5292679390567967e-04 -1.6816007191971532e-05 2.2085406915535077e-05  1.2275386951738866e-01 -1.5500237503422194e-04 -5.1553877442658531e-04  1.7823190579262027e-04 -5.9196159741938055e-05 4.2451999716877841e-05  1.2282388045591300e-01 1.3961465220871846e-04 -1.3585401224548900e-04  1.5263559241607283e-04 -7.8154539802683954e-05 7.5467735817058489e-05  1.2276088383682063e-01 1.6020482597757632e-04 -8.3296512440474640e-05  9.6198108872521421e-05 -8.4309407958673687e-05 1.2816095167499219e-04  1.2275337611031763e-01 2.0904205348203713e-04 -8.8973928850191250e-05  -1.8630019589731594e-06 -7.5338977282155161e-05 1.9573514249560700e-04  1.2281574113175657e-01 2.7289144675516789e-04 -1.1076743699370242e-04  -1.3879212086361528e-04 -5.1015595649403037e-05 2.5532579817551520e-04  1.2290549381765647e-01 3.1499128590815618e-04 -1.1883602717970171e-04  -2.6292696251585551e-04 -1.8175144282343612e-05 2.6009778902584123e-04  1.2295493159903471e-01 2.6797031191077756e-04 -7.4268643889521292e-05  -2.5408115513178705e-04 3.4362619149295121e-06 1.7481386726451748e-04  1.2288144444344126e-01 7.4632179108805776e-05 5.0701742248172262e-05  -8.1603928568828489e-05 -2.7010295615599689e-06 8.3494126351117744e-05  1.2259159070200421e-01 -2.4620580536534044e-04 -3.9262024727733219e-05  4.6211267950301983e-05 -3.7147065559789782e-06 1.0354278697794454e-04  1.2129337180352953e-01 -1.9024422948095147e-04 -1.4493272743372073e-03  1.4691979766669170e-04 -1.6294962450523196e-05 2.4954523196961946e-05  1.3069711030518363e-01 1.8685182450284499e-04 -2.6540332701858484e-04  1.3593295346217451e-04 -4.1425238762833829e-06 2.2178718198183471e-05  1.3100888658239254e-01 -7.8616302842245592e-05 -5.2456839322328629e-04  1.5642732562173785e-04 -3.3028302496996686e-05 4.2716677704953126e-05  1.3104343608061772e-01 1.7515679963509128e-04 -1.0358214011153996e-04  1.4100733050004160e-04 -4.8726041928981758e-05 7.2853518844952423e-05  1.3100323848434370e-01 1.6693161217270819e-04 -4.1352708489552866e-05  9.8354916478203224e-05 -5.5587270781265772e-05 1.2098269031943414e-04  1.3102327493719693e-01 1.8139072508038069e-04 -3.1428873468167273e-05  1.5656354593713933e-05 -5.0422322492469821e-05 1.8406952461251370e-04  1.3109494310061096e-01 2.0936962592220837e-04 -2.8767526099044145e-05  -1.0944327610877506e-04 -3.1208121864596793e-05 2.4288843081908833e-04  1.3115434719485883e-01 2.2301532243561040e-04 -7.0339794239682462e-06  -2.3553107026677144e-04 6.0118245480430410e-07 2.5426640764176687e-04  1.3111800090036591e-01 1.7484777006827298e-04 5.3799234031795595e-05  -2.4750955336355152e-04 2.8672034167167389e-05 1.7707175879674001e-04  1.3096231517437254e-01 2.3444686592884589e-05 1.1612201171353568e-04  -9.0924238766388617e-05 1.0815080182153210e-05 8.5369271622652188e-05  1.3076432759673387e-01 -2.0478954772286821e-04 -1.8006577013695595e-04  2.2195116118031731e-05 2.3442498691457527e-05 1.1143826917866303e-04  1.2958146302981158e-01 -9.5564720996315164e-05 -1.4998900980396086e-03  1.3363684901013544e-04 -8.5893740085817990e-06 2.5471726812012140e-05  1.2226945067863682e-01 1.8330542894749640e-04 -2.2795129102243971e-04  1.2829877603833071e-04 -3.4482008173419499e-06 2.0816591199085816e-05  1.2242790267824964e-01 -2.4517361718732284e-05 -4.9027123112151724e-04  1.3865373678645745e-04 -2.0919329052293630e-05 4.3990672026158873e-05  1.2263875867016842e-01 1.4779159590320781e-04 -7.4219862505574261e-05  1.2883906889463645e-04 -3.5100191643485470e-05 7.3150423072389190e-05  1.2261867656659564e-01 1.1984809953729964e-04 -1.1910755824725955e-05  9.6289278900366343e-05 -4.3486460455822732e-05 1.1768762072269168e-04  1.2264653044570296e-01 1.0752208743769806e-04 6.7622815894542134e-06  2.6558096498234756e-05 -4.2252823263017797e-05 1.7530785973642851e-04  1.2270961783871424e-01 1.0646195416110302e-04 2.3941081304111399e-05  -8.4485824008730581e-05 -2.8707458432981682e-05 2.2974958333457000e-04  1.2273227614308047e-01 1.0553154936725041e-04 6.4476494241929837e-05  -2.0451351687105071e-04 -9.0695566992892746e-07 2.4366489040734135e-04  1.2262881562298886e-01 8.9569362361419159e-05 1.3996318588138621e-04  -2.3560989084930300e-04 3.2906238348539825e-05 1.7492909851021555e-04  1.2240986231957784e-01 4.4120677942306762e-05 1.6949615959408685e-04  -1.1312514661291868e-04 1.8941145518275270e-05 8.4698671971884082e-05  1.2221265704865464e-01 -1.1562136949619776e-05 -1.8302520327263249e-04  -2.5910381843563365e-05 4.2162729070965079e-05 1.0946718641529367e-04  1.2127223560716305e-01 9.4483547451725035e-05 -1.3444875454804237e-03  1.2663347896521072e-04 -5.7667363857559070e-06 2.1685185394891980e-05  9.4152569346484166e-02 1.1095491663293235e-04 -2.1149699971615039e-04  1.2608911957126995e-04 -2.3525609420254746e-06 1.4838902361296279e-05  9.3636916966226599e-02 -3.0227635838010319e-04 -4.7488314567387672e-04  1.2331292750754469e-04 -1.3428769383833721e-05 4.2274197386991377e-05  9.4465385085060555e-02 6.1368660543018895e-05 -5.4821491237641103e-05  1.1625317371304919e-04 -2.7665057743728795e-05 7.0757360646902465e-05  9.4398782266093842e-02 4.5608236070540782e-06 6.4345427419857726e-06  9.3062953731670880e-05 -3.9286333525484259e-05 1.1105218164835595e-04  9.4355733142247225e-02 -4.2927409590593373e-05 4.4424094297446513e-05  3.5533172377622356e-05 -4.1902899275219794e-05 1.6180736098962277e-04  9.4326089439101743e-02 -8.5286581899819545e-05 9.4482488719825494e-05  -6.3710496176658365e-05 -3.3121211830905861e-05 2.1102080960850428e-04  9.4249810959216848e-02 -1.1924813763548315e-04 1.7517408389596616e-04  -1.7670186262151835e-04 -1.2345411151686500e-05 2.2892751402323253e-04  9.4072251892496378e-02 -1.3259138130244884e-04 2.7874251127969708e-04  -2.1652774306916232e-04 1.5556758696799442e-05 1.7563872986447039e-04  9.3816433348996767e-02 -1.1587263680966794e-04 3.0187677639175771e-04  -1.3166989929745308e-04 2.3914987247473383e-05 8.3318064560112604e-05  9.3494176070496648e-02 -1.3225206186330936e-04 4.7092975119220019e-07  -7.1975389887827564e-05 3.1871979233261488e-05 1.0210317068183127e-04  9.3061588535201120e-02 1.5971390780151451e-04 -1.0232308797188641e-03  1.2400974285108537e-04 -1.1157897999307140e-05 1.5127997244774990e-05  1.2834254893752454e-04 -2.9543039393685244e-06 1.4327291806493393e-05  1.1876254093586113e-04 8.9191664167257222e-07 2.8616119203070248e-06  1.3353385764386310e-04 -6.8668696482702207e-06 8.8140944405097937e-06  1.2546588305653366e-04 -1.3179573378295331e-05 1.8707526346301947e-05  1.2767281743701140e-04 -7.1613132460975963e-06 3.0697159143177675e-05  1.1748423827618156e-04 -2.2843660085281391e-05 3.2808671524938122e-05  1.2877154382291985e-04 -1.8283576071330277e-05 5.4665878655935024e-05  1.0068581558366131e-04 -3.4423930392683156e-05 5.6544780132949790e-05  1.2242122151221005e-04 -3.3226532320829618e-05 9.0721448767797785e-05  5.7783259796673160e-05 -3.8543180460468563e-05 8.8646909710636754e-05  9.2795569078434355e-05 -4.2276358520624477e-05 1.4045081702907856e-04  -2.4617713688149342e-05 -3.3041466666718924e-05 1.2666039220363297e-04  2.2348619695383370e-05 -4.1614113003441685e-05 1.9921455726999449e-04  -1.3827343674597579e-04 -1.8737929592333557e-05 1.5800983510645794e-04  -9.4233066776399857e-05 -2.8600512755845799e-05 2.4716536231057199e-04  -2.1879472012497096e-04 1.1093382313504220e-06 1.5340481177386706e-04  -2.1536035550120565e-04 -3.4923157250953761e-06 2.4456239776945917e-04  -1.5299967910293650e-04 2.0655068262851075e-05 9.7659831913889184e-05  -2.1799390763386893e-04 1.7600353427252028e-05 1.6438103601686420e-04  -9.3999644727712630e-05 2.0961196761563692e-05 1.0249755752311259e-04  -1.6356578066390801e-04 4.4586554543062853e-05 1.1175091406507030e-04  1.2241514054837209e-01 -9.7941644362312710e-05 1.7904986425111505e-05  2.8784770199606770e-04 -9.6619196166278118e-05 5.0007753067271035e-05  2.6820949521754513e-04 -6.6118423133949204e-05 3.2920221565517916e-05  1.2273703634244269e-01 -8.8780778254019037e-05 -6.3000656964752328e-04  1.2269951657165597e-01 -4.4142773819282420e-05 3.6796007979313551e-05  3.1618194780863926e-04 -1.5547769941268790e-04 1.0011894990011090e-04  1.2262165952399667e-01 3.3851435987839207e-05 -8.5032544705104303e-06  3.3695532806201966e-04 -2.1184454604538083e-04 1.9045991907584372e-04  1.2257936874204613e-01 1.2460435104647290e-04 -1.2101070516490835e-04  3.2079749331044078e-04 -2.6660259839184482e-04 3.4426653751210538e-04  1.2263770480791940e-01 2.6127252928186850e-04 -3.2463457167315274e-04  2.0675366326287884e-04 -3.0949431253540451e-04 5.7253993870310239e-04  1.2284763276094843e-01 4.4727040722307383e-04 -6.1973699215817708e-04  -6.7482963208307550e-05 -3.0912737347740603e-04 8.4136141111399235e-04  1.2328540120987405e-01 5.6903996107469782e-04 -8.7842665004763624e-04  -4.4619519485070006e-04 -2.3405083581918380e-04 1.0036564924279809e-03  1.2361787148662558e-01 5.4400952430906830e-04 -8.0840975766857139e-04  -6.4438653567323466e-04 -1.2502762238724823e-04 7.7057560136221687e-04  1.2280810777225598e-01 2.9331788403384962e-04 -3.0584353974558626e-04  -5.5594258371892879e-04 -4.3664139551395864e-05 3.0501432576904633e-04  1.2171826196408549e-01 -5.7432777052035414e-04 -2.5881494091509797e-03  -4.0963638550040293e-04 -2.5770104179588142e-05 3.3274591028997384e-04  1.6789245678238837e-01 2.1567278764185620e-04 -6.1828164708729252e-06  1.6804013747597177e-01 -1.1769474266054671e-04 -7.1137288067977709e-04  1.6807954708622433e-01 1.4211333008346308e-04 7.5892676391077862e-06  1.6809455795892247e-01 1.7531448148722166e-04 -2.1253437114334201e-05  1.6808646517903433e-01 2.5942091745160005e-04 -1.1333613199410338e-04  1.6816707092405092e-01 3.9392644704769043e-04 -2.6035165198630140e-04  1.6836983569042299e-01 5.4879892623593926e-04 -4.3207330416495710e-04  1.6865605703451048e-01 5.9143388570542343e-04 -5.3064441655642936e-04  1.6879321782909554e-01 3.1595760448943009e-04 -4.0459680405688933e-04  1.6841463867765627e-01 -3.3132973226788587e-04 -3.5262907842006160e-04  1.6737642452061899e-01 -2.5021354886484994e-04 -2.8732335347894347e-03  1.8208482048302810e-01 2.0153817695511586e-04 -1.3196446497877063e-05  1.8214315745833431e-01 -4.3771107381722022e-05 -7.1356920955933977e-04  1.8228396616966971e-01 1.8033830357078463e-04 1.3791898589543394e-05  1.8233883233349810e-01 1.7277934107313018e-04 2.0592876712421127e-06  1.8237888165949634e-01 2.0407806921368430e-04 -6.8280946207035362e-05  1.8249690426491663e-01 2.6946777292865518e-04 -1.7916452113734128e-04  1.8269796567882904e-01 3.3757116574115772e-04 -3.0376474746641709e-04  1.8287234355149076e-01 3.1962607838165137e-04 -3.7563914939834188e-04  1.8277238725358319e-01 7.6655451918932415e-05 -3.0681802756750653e-04  1.8234187576506775e-01 -4.2918363190584105e-04 -5.0998371371019878e-04  1.8141756857712862e-01 -2.2281635011178684e-04 -2.7013013768863539e-03  1.6773304419999183e-01 1.6353461787008670e-04 1.1561775667696113e-05  1.6761025623715081e-01 -2.2771512781076497e-05 -6.4818777961222281e-04  1.6797446263143007e-01 1.3747449167199913e-04 3.8293927193893502e-05  1.6804852476295698e-01 1.0804163843300716e-04 3.7831595554522091e-05  1.6810211670767439e-01 9.7311466393540681e-05 -6.2823581481290857e-06  1.6821652425329645e-01 1.0537750903877534e-04 -7.7307961453264412e-05  1.6837588153130051e-01 1.1635908228850407e-04 -1.5182045933955887e-04  1.6843229317627734e-01 9.1310747581425575e-05 -1.8221977797406964e-04  1.6817834360469422e-01 -2.4276195446734171e-05 -1.1876587829486066e-04  1.6771445795667300e-01 -2.1785862557347800e-04 -4.5872165710367409e-04  1.6721744123084095e-01 2.7163293132779400e-05 -2.2864684949546270e-03  1.2229368834934280e-01 4.9499486340220674e-05 5.8761260968944854e-05  1.2155293308013164e-01 -3.3939232560632288e-04 -5.1642830681654817e-04  1.2248524069981713e-01 3.7027215959571857e-05 8.2848062299514848e-05  1.2249543962721644e-01 -1.0700546196954926e-05 9.6846517627379803e-05  1.2246837458855422e-01 -6.2109473116447953e-05 1.0778348692395167e-04  1.2245860955205000e-01 -1.0890915076866320e-04 1.2612728422298526e-04  1.2245576812794906e-01 -1.4981091350652818e-04 1.6977413346234348e-04  1.2235941447473442e-01 -1.8010894882132460e-04 2.6134097700277153e-04  1.2201160428998720e-01 -1.9361675084710541e-04 3.2492803946262283e-04  1.2142564702831524e-01 -2.3655516313430275e-04 -9.3186894248262203e-05  1.2174911031028829e-01 1.6809448390325187e-04 -1.6097964244772220e-03  1.5021657307695698e-04 -3.6893816638064197e-06 2.1211173854288266e-05  1.5395245068879274e-04 -7.5190430675446913e-06 2.1739300138974576e-05  1.4989448626672505e-04 -8.3697016773952312e-06 4.9274115675949535e-05  1.6054072795958191e-04 -1.5672312941665171e-05 8.5364417579138996e-05  1.7249780651171386e-04 -2.9139821613108633e-05 1.4354701372869849e-04  1.6191509972706745e-04 -4.0876986749369327e-05 2.2840951808679997e-04  9.9462777320647984e-05 -4.5917598036191431e-05 3.3358457039427147e-04  -4.2906618074319073e-05 -3.9238743945013495e-05 4.2901920326475891e-04  -2.4665975596663118e-04 -1.6006166030601060e-05 4.4843758261292496e-04  -3.5654322732653397e-04 9.4320566330852204e-06 3.2980833641907224e-04  -3.3520366177400561e-04 4.2818877918783239e-05 2.5933017691711946e-04  1.3064239943378994e-01 -8.7660701268357184e-05 5.1069776552736769e-05  3.2776270809457397e-04 -9.2093091466729712e-05 4.3826234841381493e-05  3.0140843468382395e-04 -6.1717606129586144e-05 2.7346920892184115e-05  1.3097081083045078e-01 -7.3574428266466775e-05 -4.9308784899433861e-04  1.3086974797415141e-01 -3.5074431556849979e-05 1.4681492798554807e-04  3.8436097467758526e-04 -1.5302687618445668e-04 9.1317819040501931e-05  1.3076935972833376e-01 4.4543211673407843e-05 1.3196012743395678e-04  4.6472602143137132e-04 -2.2038242151990015e-04 1.8036289625843885e-04  1.3071187882233842e-01 1.4898744413420112e-04 5.5068164154823912e-05  5.4000078182863949e-04 -3.0331856467430640e-04 3.4512873905425128e-04  1.3074845322106687e-01 3.3474896056480451e-04 -1.2934692794853913e-04  5.3064125790540080e-04 -4.0712697552179697e-04 6.3028196287149684e-04  1.3097464470838419e-01 6.8922081183964688e-04 -5.0718720054669577e-04  2.6632095514323291e-04 -5.0818038500362566e-04 1.0758481948597842e-03  1.3150065210623049e-01 1.2092190745541190e-03 -1.0999873830905885e-03  -4.0009747123186345e-04 -5.2004434001536807e-04 1.6180298870170254e-03  1.3224710420142163e-01 1.2422019795385163e-03 -1.6418841209654943e-03  -1.0165793419548606e-03 -3.5610642922580580e-04 1.8815356072678707e-03  1.3119011094520974e-01 1.1860195898593514e-03 -1.7484027129309508e-03  -1.1818309148764279e-03 -1.5717597382843511e-04 7.6434898018652069e-04  1.2934546548566850e-01 4.9050297829385757e-04 -6.1241765642457684e-03  -1.2659407924066161e-03 -8.5038253863672943e-05 8.8761502434300940e-04  1.8207220777934513e-01 2.2902604050587156e-04 1.7547438608657908e-05  1.8213875872115107e-01 -1.0388566710190655e-04 -5.6345503723206100e-04  1.8222937047819357e-01 1.4948758868908726e-04 1.2778378329417881e-04  1.8225564728307503e-01 1.9880021523621932e-04 1.0112499906822418e-04  1.8228144315248218e-01 3.1734086980290949e-04 4.7920472928971333e-06  1.8241366163886213e-01 5.3505557781485141e-04 -1.6848459293448929e-04  1.8273147728757197e-01 8.8570449679848935e-04 -4.2462499606517220e-04  1.8319530343675910e-01 1.2473313674715956e-03 -7.1591002148282067e-04  1.8339371154311851e-01 1.0948413409391847e-03 -9.4369555387142413e-04  1.8280366970377376e-01 -1.0635104062043109e-05 -7.8345148386253088e-04  1.8166783918187032e-01 5.7105495219271463e-04 -5.3708514302969771e-03  1.9840563986855758e-01 2.0327793537669412e-04 4.2235705225177897e-06  1.9835757303634999e-01 -3.7354400731181801e-05 -5.8402345481893233e-04  1.9859292618168803e-01 1.7652816070153212e-04 1.1819629289046174e-04  1.9868664347699863e-01 1.7954707283978919e-04 1.0349190150427244e-04  1.9877373093848960e-01 2.3007318897870176e-04 2.4028026744854040e-05  1.9896156035920035e-01 3.3542575950744758e-04 -1.0996866945399463e-04  1.9931258657844675e-01 4.7947071566014005e-04 -2.8969994438991461e-04  1.9971425582262986e-01 5.4975747058392274e-04 -4.9463401519065264e-04  1.9955781016508520e-01 2.7395089455608298e-04 -6.9148859764066751e-04  1.9857932639534215e-01 -5.4874698526248197e-04 -5.8865612300576476e-04  1.9761713583938198e-01 5.2221873574613933e-05 -4.1790371404872382e-03  1.8193992434148412e-01 1.4025732637979864e-04 2.1728310651154905e-05  1.8172613616660621e-01 -3.7191839916058332e-05 -5.3689130960474620e-04  1.8216800513694253e-01 1.2418868213703453e-04 1.2864525502998019e-04  1.8228278774107051e-01 9.5647202428105963e-05 1.2790410157187182e-04  1.8238658515179484e-01 8.5662251865548973e-05 