<?xml version="1.0"?>
<VTKFile type="UnstructuredGrid"  version="0.1"  >
<UnstructuredGrid>
<Piece  NumberOfPoints="539" NumberOfCells="2160">
<Points>
<DataArray  type="Float64"  NumberOfComponents="3"  format="ascii">0 0.2 0.2  0.1 0.2 0.2  0.1 0.3 0.2  0.1 0.3 0.3  0.1 0.2 0.3  0 0.2 0.3  0 0.3 0.2  0 0.3 0.3  0.2 0.2 0.2  0.2 0.3 0.2  0.2 0.3 0.3  0.2 0.2 0.3  0.3 0.2 0.2  0.3 0.3 0.2  0.3 0.3 0.3  0.3 0.2 0.3  0.4 0.2 0.2  0.4 0.3 0.2  0.4 0.3 0.3  0.4 0.2 0.3  0.5 0.2 0.2  0.5 0.3 0.2  0.5 0.3 0.3  0.5 0.2 0.3  0.6 0.2 0.2  0.6 0.3 0.2  0.6 0.3 0.3  0.6 0.2 0.3  0.7 0.2 0.2  0.7 0.3 0.2  0.7 0.3 0.3  0.7 0.2 0.3  0.8 0.2 0.2  0.8 0.3 0.2  0.8 0.3 0.3  0.8 0.2 0.3  0.9 0.2 0.2  0.9 0.3 0.2  0.9 0.3 0.3  0.9 0.2 0.3  1 0.2 0.2  1 0.3 0.2  1 0.3 0.3  1 0.2 0.3  0.1 0.4 0.2  0.1 0.4 0.3  0 0.4 0.2  0 0.4 0.3  0.2 0.4 0.2  0.2 0.4 0.3  0.3 0.4 0.2  0.3 0.4 0.3  0.4 0.4 0.2  0.4 0.4 0.3  0.5 0.4 0.2  0.5 0.4 0.3  0.6 0.4 0.2  0.6 0.4 0.3  0.7 0.4 0.2  0.7 0.4 0.3  0.8 0.4 0.2  0.8 0.4 0.3  0.9 0.4 0.2  0.9 0.4 0.3  1 0.4 0.2  1 0.4 0.3  0.1 0.5 0.2  0.1 0.5 0.3  0 0.5 0.2  0 0.5 0.3  0.2 0.5 0.2  0.2 0.5 0.3  0.3 0.5 0.2  0.3 0.5 0.3  0.4 0.5 0.2  0.4 0.5 0.3  0.5 0.5 0.2  0.5 0.5 0.3  0.6 0.5 0.2  0.6 0.5 0.3  0.7 0.5 0.2  0.7 0.5 0.3  0.8 0.5 0.2  0.8 0.5 0.3  0.9 0.5 0.2  0.9 0.5 0.3  1 0.5 0.2  1 0.5 0.3  0.1 0.6 0.2  0.1 0.6 0.3  0 0.6 0.2  0 0.6 0.3  0.2 0.6 0.2  0.2 0.6 0.3  0.3 0.6 0.2  0.3 0.6 0.3  0.4 0.6 0.2  0.4 0.6 0.3  0.5 0.6 0.2  0.5 0.6 0.3  0.6 0.6 0.2  0.6 0.6 0.3  0.7 0.6 0.2  0.7 0.6 0.3  0.8 0.6 0.2  0.8 0.6 0.3  0.9 0.6 0.2  0.9 0.6 0.3  1 0.6 0.2  1 0.6 0.3  0.1 0.7 0.2  0.1 0.7 0.3  0 0.7 0.2  0 0.7 0.3  0.2 0.7 0.2  0.2 0.7 0.3  0.3 0.7 0.2  0.3 0.7 0.3  0.4 0.7 0.2  0.4 0.7 0.3  0.5 0.7 0.2  0.5 0.7 0.3  0.6 0.7 0.2  0.6 0.7 0.3  0.7 0.7 0.2  0.7 0.7 0.3  0.8 0.7 0.2  0.8 0.7 0.3  0.9 0.7 0.2  0.9 0.7 0.3  1 0.7 0.2  1 0.7 0.3  0.1 0.8 0.2  0.1 0.8 0.3  0 0.8 0.2  0 0.8 0.3  0.2 0.8 0.2  0.2 0.8 0.3  0.3 0.8 0.2  0.3 0.8 0.3  0.4 0.8 0.2  0.4 0.8 0.3  0.5 0.8 0.2  0.5 0.8 0.3  0.6 0.8 0.2  0.6 0.8 0.3  0.7 0.8 0.2  0.7 0.8 0.3  0.8 0.8 0.2  0.8 0.8 0.3  0.9 0.8 0.2  0.9 0.8 0.3  1 0.8 0.2  1 0.8 0.3  0.1 0.3 0.4  0.1 0.2 0.4  0 0.2 0.4  0 0.3 0.4  0.2 0.3 0.4  0.2 0.2 0.4  0.3 0.3 0.4  0.3 0.2 0.4  0.4 0.3 0.4  0.4 0.2 0.4  0.5 0.3 0.4  0.5 0.2 0.4  0.6 0.3 0.4  0.6 0.2 0.4  0.7 0.3 0.4  0.7 0.2 0.4  0.8 0.3 0.4  0.8 0.2 0.4  0.9 0.3 0.4  0.9 0.2 0.4  1 0.3 0.4  1 0.2 0.4  0.1 0.4 0.4  0 0.4 0.4  0.2 0.4 0.4  0.3 0.4 0.4  0.4 0.4 0.4  0.5 0.4 0.4  0.6 0.4 0.4  0.7 0.4 0.4  0.8 0.4 0.4  0.9 0.4 0.4  1 0.4 0.4  0.1 0.5 0.4  0 0.5 0.4  0.2 0.5 0.4  0.3 0.5 0.4  0.4 0.5 0.4  0.5 0.5 0.4  0.6 0.5 0.4  0.7 0.5 0.4  0.8 0.5 0.4  0.9 0.5 0.4  1 0.5 0.4  0.1 0.6 0.4  0 0.6 0.4  0.2 0.6 0.4  0.3 0.6 0.4  0.4 0.6 0.4  0.5 0.6 0.4  0.6 0.6 0.4  0.7 0.6 0.4  0.8 0.6 0.4  0.9 0.6 0.4  1 0.6 0.4  0.1 0.7 0.4  0 0.7 0.4  0.2 0.7 0.4  0.3 0.7 0.4  0.4 0.7 0.4  0.5 0.7 0.4  0.6 0.7 0.4  0.7 0.7 0.4  0.8 0.7 0.4  0.9 0.7 0.4  1 0.7 0.4  0.1 0.8 0.4  0 0.8 0.4  0.2 0.8 0.4  0.3 0.8 0.4  0.4 0.8 0.4  0.5 0.8 0.4  0.6 0.8 0.4  0.7 0.8 0.4  0.8 0.8 0.4  0.9 0.8 0.4  1 0.8 0.4  0.1 0.3 0.5  0.1 0.2 0.5  0 0.2 0.5  0 0.3 0.5  0.2 0.3 0.5  0.2 0.2 0.5  0.3 0.3 0.5  0.3 0.2 0.5  0.4 0.3 0.5  0.4 0.2 0.5  0.5 0.3 0.5  0.5 0.2 0.5  0.6 0.3 0.5  0.6 0.2 0.5  0.7 0.3 0.5  0.7 0.2 0.5  0.8 0.3 0.5  0.8 0.2 0.5  0.9 0.3 0.5  0.9 0.2 0.5  1 0.3 0.5  1 0.2 0.5  0.1 0.4 0.5  0 0.4 0.5  0.2 0.4 0.5  0.3 0.4 0.5  0.4 0.4 0.5  0.5 0.4 0.5  0.6 0.4 0.5  0.7 0.4 0.5  0.8 0.4 0.5  0.9 0.4 0.5  1 0.4 0.5  0.1 0.5 0.5  0 0.5 0.5  0.2 0.5 0.5  0.3 0.5 0.5  0.4 0.5 0.5  0.5 0.5 0.5  0.6 0.5 0.5  0.7 0.5 0.5  0.8 0.5 0.5  0.9 0.5 0.5  1 0.5 0.5  0.1 0.6 0.5  0 0.6 0.5  0.2 0.6 0.5  0.3 0.6 0.5  0.4 0.6 0.5  0.5 0.6 0.5  0.6 0.6 0.5  0.7 0.6 0.5  0.8 0.6 0.5  0.9 0.6 0.5  1 0.6 0.5  0.1 0.7 0.5  0 0.7 0.5  0.2 0.7 0.5  0.3 0.7 0.5  0.4 0.7 0.5  0.5 0.7 0.5  0.6 0.7 0.5  0.7 0.7 0.5  0.8 0.7 0.5  0.9 0.7 0.5  1 0.7 0.5  0.1 0.8 0.5  0 0.8 0.5  0.2 0.8 0.5  0.3 0.8 0.5  0.4 0.8 0.5  0.5 0.8 0.5  0.6 0.8 0.5  0.7 0.8 0.5  0.8 0.8 0.5  0.9 0.8 0.5  1 0.8 0.5  0.1 0.3 0.6  0.1 0.2 0.6  0 0.2 0.6  0 0.3 0.6  0.2 0.3 0.6  0.2 0.2 0.6  0.3 0.3 0.6  0.3 0.2 0.6  0.4 0.3 0.6  0.4 0.2 0.6  0.5 0.3 0.6  0.5 0.2 0.6  0.6 0.3 0.6  0.6 0.2 0.6  0.7 0.3 0.6  0.7 0.2 0.6  0.8 0.3 0.6  0.8 0.2 0.6  0.9 0.3 0.6  0.9 0.2 0.6  1 0.3 0.6  1 0.2 0.6  0.1 0.4 0.6  0 0.4 0.6  0.2 0.4 0.6  0.3 0.4 0.6  0.4 0.4 0.6  0.5 0.4 0.6  0.6 0.4 0.6  0.7 0.4 0.6  0.8 0.4 0.6  0.9 0.4 0.6  1 0.4 0.6  0.1 0.5 0.6  0 0.5 0.6  0.2 0.5 0.6  0.3 0.5 0.6  0.4 0.5 0.6  0.5 0.5 0.6  0.6 0.5 0.6  0.7 0.5 0.6  0.8 0.5 0.6  0.9 0.5 0.6  1 0.5 0.6  0.1 0.6 0.6  0 0.6 0.6  0.2 0.6 0.6  0.3 0.6 0.6  0.4 0.6 0.6  0.5 0.6 0.6  0.6 0.6 0.6  0.7 0.6 0.6  0.8 0.6 0.6  0.9 0.6 0.6  1 0.6 0.6  0.1 0.7 0.6  0 0.7 0.6  0.2 0.7 0.6  0.3 0.7 0.6  0.4 0.7 0.6  0.5 0.7 0.6  0.6 0.7 0.6  0.7 0.7 0.6  0.8 0.7 0.6  0.9 0.7 0.6  1 0.7 0.6  0.1 0.8 0.6  0 0.8 0.6  0.2 0.8 0.6  0.3 0.8 0.6  0.4 0.8 0.6  0.5 0.8 0.6  0.6 0.8 0.6  0.7 0.8 0.6  0.8 0.8 0.6  0.9 0.8 0.6  1 0.8 0.6  0.1 0.3 0.7  0.1 0.2 0.7  0 0.2 0.7  0 0.3 0.7  0.2 0.3 0.7  0.2 0.2 0.7  0.3 0.3 0.7  0.3 0.2 0.7  0.4 0.3 0.7  0.4 0.2 0.7  0.5 0.3 0.7  0.5 0.2 0.7  0.6 0.3 0.7  0.6 0.2 0.7  0.7 0.3 0.7  0.7 0.2 0.7  0.8 0.3 0.7  0.8 0.2 0.7  0.9 0.3 0.7  0.9 0.2 0.7  1 0.3 0.7  1 0.2 0.7  0.1 0.4 0.7  0 0.4 0.7  0.2 0.4 0.7  0.3 0.4 0.7  0.4 0.4 0.7  0.5 0.4 0.7  0.6 0.4 0.7  0.7 0.4 0.7  0.8 0.4 0.7  0.9 0.4 0.7  1 0.4 0.7  0.1 0.5 0.7  0 0.5 0.7  0.2 0.5 0.7  0.3 0.5 0.7  0.4 0.5 0.7  0.5 0.5 0.7  0.6 0.5 0.7  0.7 0.5 0.7  0.8 0.5 0.7  0.9 0.5 0.7  1 0.5 0.7  0.1 0.6 0.7  0 0.6 0.7  0.2 0.6 0.7  0.3 0.6 0.7  0.4 0.6 0.7  0.5 0.6 0.7  0.6 0.6 0.7  0.7 0.6 0.7  0.8 0.6 0.7  0.9 0.6 0.7  1 0.6 0.7  0.1 0.7 0.7  0 0.7 0.7  0.2 0.7 0.7  0.3 0.7 0.7  0.4 0.7 0.7  0.5 0.7 0.7  0.6 0.7 0.7  0.7 0.7 0.7  0.8 0.7 0.7  0.9 0.7 0.7  1 0.7 0.7  0.1 0.8 0.7  0 0.8 0.7  0.2 0.8 0.7  0.3 0.8 0.7  0.4 0.8 0.7  0.5 0.8 0.7  0.6 0.8 0.7  0.7 0.8 0.7  0.8 0.8 0.7  0.9 0.8 0.7  1 0.8 0.7  0.1 0.3 0.8  0.1 0.2 0.8  0 0.2 0.8  0 0.3 0.8  0.2 0.3 0.8  0.2 0.2 0.8  0.3 0.3 0.8  0.3 0.2 0.8  0.4 0.3 0.8  0.4 0.2 0.8  0.5 0.3 0.8  0.5 0.2 0.8  0.6 0.3 0.8  0.6 0.2 0.8  0.7 0.3 0.8  0.7 0.2 0.8  0.8 0.3 0.8  0.8 0.2 0.8  0.9 0.3 0.8  0.9 0.2 0.8  1 0.3 0.8  1 0.2 0.8  0.1 0.4 0.8  0 0.4 0.8  0.2 0.4 0.8  0.3 0.4 0.8  0.4 0.4 0.8  0.5 0.4 0.8  0.6 0.4 0.8  0.7 0.4 0.8  0.8 0.4 0.8  0.9 0.4 0.8  1 0.4 0.8  0.1 0.5 0.8  0 0.5 0.8  0.2 0.5 0.8  0.3 0.5 0.8  0.4 0.5 0.8  0.5 0.5 0.8  0.6 0.5 0.8  0.7 0.5 0.8  0.8 0.5 0.8  0.9 0.5 0.8  1 0.5 0.8  0.1 0.6 0.8  0 0.6 0.8  0.2 0.6 0.8  0.3 0.6 0.8  0.4 0.6 0.8  0.5 0.6 0.8  0.6 0.6 0.8  0.7 0.6 0.8  0.8 0.6 0.8  0.9 0.6 0.8  1 0.6 0.8  0.1 0.7 0.8  0 0.7 0.8  0.2 0.7 0.8  0.3 0.7 0.8  0.4 0.7 0.8  0.5 0.7 0.8  0.6 0.7 0.8  0.7 0.7 0.8  0.8 0.7 0.8  0.9 0.7 0.8  1 0.7 0.8  0.1 0.8 0.8  0 0.8 0.8  0.2 0.8 0.8  0.3 0.8 0.8  0.4 0.8 0.8  0.5 0.8 0.8  0.6 0.8 0.8  0.7 0.8 0.8  0.8 0.8 0.8  0.9 0.8 0.8  1 0.8 0.8  </DataArray>
</Points>
<Cells>
[...]
<PointData  Vectors="f_23"> 
<DataArray  type="Float64"  Name="f_23"  NumberOfComponents="3" format="ascii">5.1195731970862964e-04 -1.0267310660268860e-04 1.9713756488413909e-05  4.9944181289398204e-04 -1.3410489792796033e-04 3.2166128018823593e-05  4.8537575746868524e-04 -9.5049318379090782e-05 2.2096744966598832e-05  1.0106420659541705e-01 -3.0129151099220777e-05 -8.7470877028105848e-05  5.4718890832567411e-04 -1.2881940979285805e-04 4.9840221517595564e-05  5.5653707648536694e-04 -9.5483053678409950e-05 3.5774516646503052e-05  4.8877165681798307e-04 -6.4159382478062114e-05 1.6074715175566448e-05  1.0067169905918509e-01 -4.4987365380326060e-05 -2.0242791989734971e-04  4.2299108807609780e-04 -1.9040767019216950e-04 7.1191797795582814e-05  4.2764951079055324e-04 -1.4620082820035666e-04 5.0363442256848661e-05  1.0145869080537258e-01 1.0770674508376767e-05 -6.0063546004311646e-05  4.9493303036418190e-04 -1.9230121625749387e-04 1.0070889150744417e-04  2.9274277160313384e-04 -2.2235179387168218e-04 1.4270123617452966e-04  3.1226089768876932e-04 -1.7542757580834748e-04 1.0706792904565282e-04  1.0136585370750881e-01 6.5469696908994048e-05 -3.2306401653411226e-05  3.9622158976782164e-04 -2.3694955822667479e-04 1.9083019848143679e-04  1.0567909757443845e-04 -2.2744958874103895e-04 2.4355769904793186e-04  1.4507192287446696e-04 -1.8238265898605391e-04 1.9241401559320318e-04  1.0133663163407884e-01 1.3481444350071738e-04 -5.7177590456427768e-05  2.3516391690712961e-04 -2.5889239414993382e-04 3.2721049595630600e-04  -1.3962252846128707e-04 -1.9947704773923592e-04 3.5199299024190830e-04  -7.8627643804519479e-05 -1.6406987021324809e-04 2.9242347638197444e-04  1.0137019663412097e-01 2.1720847871561141e-04 -1.2766115419605111e-04  -1.2889772452695286e-05 -2.4790156438052243e-04 4.9497118633297582e-04  -4.0378728609177089e-04 -1.4092472077672678e-04 4.1961041884439081e-04  -3.3434641953566338e-04 -1.2167853175199809e-04 3.6900363957392894e-04  1.0145085472599776e-01 2.9180713414175656e-04 -2.2271989853977161e-04  -3.3920131921438558e-04 -1.9322112063915241e-04 6.3537503700863670e-04  -5.7768840283360114e-04 -7.7239272747196109e-05 3.8212873307231371e-04  -5.3460291010449840e-04 -7.0162029337510567e-05 3.6040972918724304e-04  1.0152763138855020e-01 3.1724256299297431e-04 -2.7077396003219017e-04  -6.3481804508953084e-04 -1.1132765370405261e-04 6.4037496511076515e-04  -5.2455613760339311e-04 -4.2237571548223716e-05 2.3107046487757965e-04  -5.3848590489892695e-04 -3.5156195367720306e-05 2.3613275149978445e-04  1.0140671907770930e-01 2.5788069427438168e-04 -9.4456063227261783e-05  -7.1117465438246441e-04 -5.6919907645395835e-05 4.2016338541586587e-04  -3.3142641696857383e-04 -1.3926485211282384e-05 8.8302354399663868e-05  -3.5188536979955591e-04 -1.6662471045560817e-05 1.0766765080417213e-04  1.0075165026868912e-01 8.5886280678263669e-05 2.2237730466953597e-04  -5.2784442806982608e-04 -1.8742120172652162e-05 1.7572816801944853e-04  -2.1158026065500128e-04 -2.5458698633763331e-05 1.2984868908213592e-04  -2.0882830059157356e-04 -2.6299211612417683e-05 1.3100619046466563e-04  9.9138445694165023e-02 -1.7906260719868937e-04 -5.9542635365627888e-04  -3.4923536738294745e-04 -2.3678624447206568e-05 1.8336997748264909e-04  4.3640823962742332e-04 -5.2627511063362734e-05 2.2266530919323950e-05  1.2701024025127133e-01 1.8443509673637029e-04 -1.7787532830305315e-04  4.3915265278497327e-04 -3.1739549870114247e-05 1.8007434059977142e-05  1.2716939023725390e-01 -5.0288618818362841e-05 -2.2772647195986744e-04  3.9500888201077542e-04 -8.8197684682629382e-05 4.6851459488141054e-05  1.2735345313178492e-01 1.4914392754451132e-04 -1.1594269694150167e-04  2.9907503605462737e-04 -1.1196261236673838e-04 9.6666451678056542e-05  1.2727435618486183e-01 1.6946915419831173e-04 -5.8399956042951228e-05  1.5400207666490585e-04 -1.1836324740695659e-04 1.7332585596016332e-04  1.2726000097121870e-01 2.2041369120454003e-04 -5.4042948775887494e-05  -4.6819412930260135e-05 -1.0538614749189722e-04 2.6708353502126334e-04  1.2730863388914052e-01 2.8417902518265736e-04 -7.2950831289929875e-05  -2.8933678910331785e-04 -7.3729767922432388e-05 3.4664936640055099e-04  1.2737107098273107e-01 3.2695321336353615e-04 -8.4140793355605038e-05  -4.9841988017787703e-04 -3.2536060694253119e-05 3.5289819713804160e-04  1.2737434277643614e-01 2.8979765695482035e-04 -4.8244543033063063e-05  -5.2288922351419057e-04 -4.7843799593449043e-06 2.4242407070538426e-04  1.2723606461591314e-01 1.2441920066173296e-04 8.1203911646328348e-05  -3.3424289318880135e-04 -7.7993895238104229e-06 1.1341317451883637e-04  1.2684310974617502e-01 -1.5372563045413455e-04 1.0411963200564062e-04  -1.9535412522764494e-04 -1.1517019441722842e-05 1.4471507294272056e-04  1.2532189168194369e-01 -1.0872253200994729e-04 -1.0565397009688812e-03  4.0397272406280391e-04 -2.9825908472983822e-05 2.3261296907746825e-05  1.3393593474802504e-01 2.1577132211320280e-04 -1.8212252685468521e-04  4.1042990507280839e-04 -1.3937742514184243e-05 1.8802787093216691e-05  1.3410834342236247e-01 1.3298926458388043e-05 -2.5673465613478745e-04  3.6680432956124779e-04 -5.4276150391967434e-05 4.6259401056743566e-05  1.3427711446687185e-01 1.7955719663010575e-04 -1.0159133582284024e-04  2.8525025477700480e-04 -7.4157430349418659e-05 9.1507387206914850e-05  1.3422299293317230e-01 1.7198173886754766e-04 -3.5202823065983464e-05  1.5827693079472306e-04 -8.1262426880964505e-05 1.6169157390058490e-04  1.3424054252576800e-01 1.9336820589302916e-04 -1.6667338603523172e-05  -2.3036786661727632e-05 -7.2313190007708620e-05 2.4951336560109490e-04  1.3430810558614806e-01 2.2934212086016137e-04 -1.1200421636713739e-05  -2.5118359424637919e-04 -4.5617185508250749e-05 3.2803318213090967e-04  1.3435216011783555e-01 2.5411764266972494e-04 1.3097074490090123e-05  -4.6329456356810402e-04 -4.5344076714055853e-06 3.4274510905886300e-04  1.3427741607373370e-01 2.2532303895899004e-04 8.2601639160435994e-05  -5.1282868498816905e-04 3.0165466608583711e-05 2.4385951396883927e-04  1.3404181688408251e-01 1.0245818156460877e-04 1.8269946193210707e-04  -3.3993693896263718e-04 1.1191530726271827e-05 1.1644066968077972e-04  1.3367567118378693e-01 -1.0045675873320727e-04 4.5489208029308438e-05  -2.1732190196658703e-04 2.6342853512564942e-05 1.5484958840186158e-04  1.3221038839681723e-01 -2.3535983252590659e-05 -1.0372249014744786e-03  3.8257606350803697e-04 -1.9646662871258939e-05 2.3189795454689836e-05  1.2677708979712432e-01 2.0949631456438530e-04 -1.5805257437298485e-04  3.9404617829593536e-04 -1.0269673935466308e-05 1.7632764615311428e-05  1.2678441431295587e-01 3.6360156121486653e-05 -2.5865003561676840e-04  3.4353418975436093e-04 -3.9360765861478927e-05 4.5000840758267087e-05  1.2714974696634235e-01 1.4696417814477793e-04 -7.1485733117795716e-05  2.7118457179588961e-04 -5.7959980124187809e-05 8.6043712145962063e-05  1.2711455170124922e-01 1.2173428368663280e-04 -3.0055645330893057e-06  1.5840196676022777e-04 -6.7075111355903059e-05 1.4881789195590257e-04  1.2713504344553314e-01 1.1889439933264165e-04 2.5599781755665705e-05  -5.7665272587426990e-06 -6.2523928956548320e-05 2.2761515607371260e-04  1.2719075057850485e-01 1.2872571474601546e-04 4.7751880165383818e-05  -2.1654557794401633e-04 -4.1726011378252676e-05 2.9975624355617559e-04  1.2719843559309171e-01 1.3993323962548110e-04 9.5527015497881971e-05  -4.2269374991725587e-04 -4.2941930792591627e-06 3.1852989894700821e-04  1.2705773329384434e-01 1.3758885669615402e-04 1.8977436288008460e-04  -4.9777908765154385e-04 3.7267432323180477e-05 2.3328590905466074e-04  1.2675137169819051e-01 1.0302483790181741e-04 2.7010191337798888e-04  -3.6541994913964353e-04 2.3467738050107829e-05 1.1276648351448127e-04  1.2635544280469338e-01 5.1150247777274877e-05 8.4240903328615827e-05  -2.7154937004591009e-04 5.2662220867793881e-05 1.4889263933091836e-04  1.2512129247438156e-01 1.3049543378433498e-04 -8.7536636876973538e-04  3.6866498243182116e-04 -1.5644364864713351e-05 2.0144499119765225e-05  1.0016947429339036e-01 1.2454067686348496e-04 -1.6437342619786557e-04  3.8560108540079479e-04 -7.9029693482729400e-06 1.2534562773676668e-05  9.9549226319185558e-02 -2.7160431512340594e-04 -3.2103547368430522e-04  3.2415093154936753e-04 -3.2323196222040592e-05 4.2191537614744602e-05  1.0047255002060435e-01 5.7199375197955494e-05 -4.3280946847565053e-05  2.5875057753148826e-04 -5.2588533693239923e-05 7.8655296138860082e-05  1.0037363511241240e-01 6.2845726127367748e-06 2.8349320564514833e-05  1.5973030958616315e-04 -6.6110167293535201e-05 1.3293581567463654e-04  1.0030375469413477e-01 -3.2707591079897555e-05 7.9446428580000954e-05  1.1891394956686998e-05 -6.6407086726215066e-05 2.0098217777167224e-04  1.0024574592748524e-01 -6.5392508721148770e-05 1.3785986704634983e-04  -1.8417530445269563e-04 -5.1350866167661712e-05 2.6567832978644591e-04  1.0013598979138447e-01 -8.9694025128341531e-05 2.2638120878539530e-04  -3.8289602266975938e-04 -2.1549161631105377e-05 2.8928167704298055e-04  9.9912565516113466e-02 -9.5235533462549192e-05 3.4124840403744017e-04  -4.6977612806717452e-04 1.5000915997680174e-05 2.2421731218639425e-04  9.9581250111418482e-02 -7.6715408885296091e-05 3.9672621510293234e-04  -3.8602198719447705e-04 2.7879458263880675e-05 1.0592184869823457e-04  9.9100871124672987e-02 -9.7320645837680600e-05 2.0644232616355492e-04  -3.2380878154539017e-04 4.0138117749636174e-05 1.3371644104796470e-04  9.8372529927598928e-02 1.8408962112034167e-04 -6.7960728146584676e-04  3.8299224082213396e-04 -2.0249934282711819e-05 4.5029052133029598e-06  3.9435271321820118e-04 -1.0466336757992824e-05 1.2621155739129036e-05  3.9622748290751495e-04 -8.8297182292051441e-06 -1.0690481509500123e-06  4.0916102143841930e-04 -1.2563882456613436e-05 8.3816809098843776e-06  3.4554682335322524e-04 -3.2588656819656614e-05 4.6362472017775832e-06  3.7090126574449036e-04 -2.2188326363763981e-05 2.8517482591642797e-05  2.8453068757969675e-04 -5.0501946231024744e-05 2.1008774241792311e-05  3.2477568794502069e-04 -4.1450364454320596e-05 5.9320478762779734e-05  1.9734327587307262e-04 -6.5906567227598363e-05 5.2908551378452908e-05  2.5377424474439919e-04 -6.1170866678443570e-05 1.0795864292608563e-04  6.8309126298096316e-05 -6.9489157617091293e-05 9.7703265948607520e-05  1.4288583041635746e-04 -7.0829307984449761e-05 1.7513476683644067e-04  -1.1018123733061632e-04 -5.9572615564968666e-05 1.5030599578871195e-04  -2.2575830684612821e-05 -6.6636452825238044e-05 2.5306100599486531e-04  -3.1735779960465066e-04 -3.8036759234961860e-05 1.9309390372757777e-04  -2.3870690469769725e-04 -4.6218607240184308e-05 3.1508530748399703e-04  -4.6489136742518001e-04 -1.0018061172561850e-05 1.9069314289498829e-04  -4.4385395551930872e-04 -1.1113852691339373e-05 3.1244125399089179e-04  -4.0874289097326383e-04 1.6545079524578019e-05 1.2491049072827076e-04  -4.8386149749153731e-04 1.9264820876410388e-05 2.1246185281588090e-04  -3.4313915547667256e-04 2.5617353390861837e-05 1.2509500344959926e-04  -4.3137189131646248e-04 5.3407289212371966e-05 1.4385565033609579e-04  1.2700542768628520e-01 -6.5454682718950994e-05 1.1634399856207125e-04  5.9794059955625516e-04 -1.2462878978289083e-04 7.2319509303653406e-05  6.0072523251641420e-04 -9.0625029184144475e-05 4.8445447788863289e-05  1.2725537579996063e-01 -1.8415126198434530e-06 -4.4424082281589164e-04  1.2725630529641069e-01 -2.2780003573588063e-05 8.3000374619507695e-05  5.7753827306816470e-04 -1.9369863330639527e-04 1.4139770154780444e-04  1.2717378051135070e-01 5.3576995966674100e-05 5.1526706008243263e-05  5.3213961727059688e-04 -2.5139856848776826e-04 2.5781664876797132e-04  1.2711784382482610e-01 1.4665500982172965e-04 -3.2911425973761199e-05  4.2654208975774873e-04 -2.9857595083380208e-04 4.4525012067084659e-04  1.2714695751509630e-01 2.7841331249640964e-04 -2.0603688851649664e-04  1.9749760300289464e-04 -3.2589449239080442e-04 7.1200065796581200e-04  1.2730116912680428e-01 4.5068539546039781e-04 -4.7364490246301941e-04  -2.1304490130278952e-04 -3.0608448263608694e-04 1.0171866610487882e-03  1.2764409376081493e-01 5.6426472688499249e-04 -7.2739358878991776e-04  -7.2796977333642178e-04 -2.1558266208115943e-04 1.1950865201502850e-03  1.2790680570864846e-01 5.5103767531529272e-04 -6.8416738312366730e-04  -1.0137006913727819e-03 -1.0574706872145599e-04 9.2619527663387726e-04  1.2719949542847955e-01 3.7286809267604256e-04 -1.9449312045252402e-04  -9.3289985699901586e-04 -3.6289419610038547e-05 3.6824765675921384e-04  1.2616946598916956e-01 -4.2539539389744777e-04 -2.2787942047806540e-03  -7.8068493559834882e-04 -1.8109896654017171e-05 3.9900020358643579e-04  1.6878650242067458e-01 2.4508116702375910e-04 1.0268677731146454e-04  1.6887253408551017e-01 1.5013724356039399e-05 -4.8501306983219218e-04  1.6896068370303502e-01 1.6725210909603321e-04 2.5887533713524030e-05  1.6897215579157709e-01 2.0267091022007001e-04 -3.8548762396980865e-06  1.6898474448914969e-01 2.9089032076461905e-04 -8.4508364443304756e-05  1.6909026519866205e-01 4.2321676302583275e-04 -2.2101346818649721e-04  1.6929874657512120e-01 5.7621490748988751e-04 -3.7775466522735980e-04  1.6954883205763335e-01 6.4431203410222253e-04 -4.6073022595098342e-04  1.6962594252915009e-01 4.4861689109759387e-04 -3.1034121622985482e-04  1.6924657366825208e-01 -9.1979050895646131e-05 -1.0387968889949751e-04  1.6829224784086916e-01 -3.7421588969116295e-05 -2.3371132468230672e-03  1.8062815845967048e-01 2.5230918027298630e-04 7.7750284440304365e-05  1.8060747772328931e-01 8.0182139055930032e-05 -5.0255225901574664e-04  1.8083336124073934e-01 1.9833116665328625e-04 7.4104913673043493e-06  1.8089181792662551e-01 1.8953514326076155e-04 -7.9229626376248622e-06  1.8096117609808290e-01 2.2795801338647203e-04 -6.8916320688018935e-05  1.8111978358766856e-01 3.0026087841923183e-04 -1.6627772167574444e-04  1.8134962235180405e-01 3.8132065772051736e-04 -2.5640914412083363e-04  1.8151509768475740e-01 4.0139706093663021e-04 -2.6222992319421839e-04  1.8136329808036014e-01 2.3577887639724876e-04 -7.9886005897131308e-05  1.8085518623179270e-01 -1.8508726866965408e-04 -2.5544053561630464e-05  1.7994920877025664e-01 -2.0946510369360420e-05 -1.9471250076929173e-03  1.6860819536377558e-01 2.0156168192759697e-04 9.1803923624567902e-05  1.6838415623739444e-01 5.8063808742776005e-05 -4.5980116322334952e-04  1.6886487565382266e-01 1.3916687225388970e-04 3.4533692302587636e-05  1.6894212220178353e-01 1.0854003333450822e-04 3.5307768614398364e-05  1.6901751943652449e-01 1.0580667688410216e-04 4.0329207101060645e-06  1.6916546476701907e-01 1.2302169537476080e-04 -4.8665690039173027e-05  1.6935312513258888e-01 1.4735354462997068e-04 -7.9664983152556371e-05  1.6940685125588889e-01 1.4750104986807071e-04 -2.1501860656979021e-05  1.6909546994304278e-01 7.5722586814063749e-05 1.9556647387654810e-04  1.6849712691258328e-01 -6.8565931171710626e-05 1.3491727619254656e-04  1.6795367484755316e-01 1.5139421848381503e-04 -1.4615889512544634e-03  1.2687485163520726e-01 6.6353960180457868e-05 1.2011998500435584e-04  1.2608111760659210e-01 -2.9942435696634804e-04 -3.8029035689997770e-04  1.2706445964206298e-01 2.9316634662266418e-05 9.8568546717083642e-05  1.2705479487355550e-01 -1.5031359338057908e-05 1.2399365644302472e-04  1.2701762202307720e-01 -5.8923495525251804e-05 1.5424710879275902e-04  1.2700346676009477e-01 -9.8447669056295868e-05 1.9473035567035344e-04  1.2698894721780737e-01 -1.3082578841099631e-04 2.7462700626021955e-04  1.2686392559101811e-01 -1.5016413782984370e-04 4.2904411493802888e-04  1.2645778938297589e-01 -1.4749094851317624e-04 5.8087899324580153e-04  1.2574348915607897e-01 -1.7436723338185839e-04 3.5574483817427208e-04  1.2594538131532901e-01 2.4852533723765418e-04 -1.0116127329475658e-03  4.2178177125321568e-04 -9.6085291196836368e-06 3.0459584791556587e-05  4.3544649589378028e-04 -1.2741726583924857e-05 2.9323355027708370e-05  3.9864815803561989e-04 -2.1654917287609449e-05 6.5753665981764791e-05  3.7031097940872404e-04 -3.8957857409982592e-05 1.1692762724788213e-04  3.2474738819358780e-04 -6.0709155338955211e-05 1.9674269923903174e-04  2.3764643414760325e-04 -7.7322164341420751e-05 3.0907614897328827e-04  7.9652434116478634e-05 -8.2911281308823952e-05 4.4395937572490823e-04  -1.7229181231930046e-04 -7.2125955102275566e-05 5.6233645000173962e-04  -4.8243511734241169e-04 -3.9057037529086212e-05 5.8213209034905383e-04  -6.5895115846272554e-04 -6.0698958814616146e-07 4.2838950449134138e-04  -6.4768916629910080e-04 4.2290062852697808e-05 3.3608986450177488e-04  1.3394382025712695e-01 -5.1502435426052496e-05 1.1573987356718809e-04  6.5533695995799522e-04 -1.1738409722472506e-04 6.5997348873421510e-05  6.4981850088010370e-04 -8.3366876377355195e-05 4.1195571908413606e-05  1.3420356335377376e-01 2.2949016754015422e-05 -3.6619834526667623e-04  1.3414611868159149e-01 -1.4483996484300481e-05 1.6984626715048750e-04  6.6857761065693513e-04 -1.8669675134934329e-04 1.3196159233585738e-04  1.3405005265828640e-01 6.7038931726199345e-05 1.6046588244322522e-04  6.9107425594131151e-04 -2.5230079460822249e-04 2.4570089335477341e-04  1.3398545566212763e-01 1.7938462685109150e-04 1.0504188930566088e-04  6.8421530684720168e-04 -3.2124233893487887e-04 4.4200885542980357e-04  1.3400132653239052e-01 3.6747523961867703e-04 -4.4430850662354955e-05  5.6206900638744873e-04 -3.9779976548118083e-04 7.6354892225529542e-04  1.3418490263353727e-01 7.1224472840704790e-04 -3.7317460108023988e-04  1.5040825894036734e-04 -4.6469988209288122e-04 1.2476388036614483e-03  1.3462376452310792e-01 1.2339464729005218e-03 -9.4945184012149952e-04  -6.8914869324789474e-04 -4.5168084721423181e-04 1.8254133353023728e-03  1.3524911567475603e-01 1.3807360544777051e-03 -1.5959756788935322e-03  -1.4519061395067091e-03 -2.9201777766557646e-04 2.0923850105894937e-03  1.3443443030845273e-01 1.5213621198045995e-03 -1.8587816725447969e-03  -1.6621485726001548e-03 -1.2726477355442948e-04 8.6145849541997528e-04  1.3311085861073671e-01 8.6996628956935874e-04 -6.0906584119484273e-03  -1.7631889703805081e-03 -5.1375140269707892e-05 9.7209400510995202e-04  1.8063177858681354e-01 2.6280313797319991e-04 9.4995084987564574e-05  1.8062608955508250e-01 3.3956201031793925e-05 -4.0519176315493882e-04  1.8078286374376809e-01 1.7293607117397586e-04 1.3305100567188033e-04  1.8081219676332333e-01 2.2634280237348250e-04 9.5847284511142326e-05  1.8086543085648674e-01 3.5274343524850107e-04 5.6435933831778429e-06  1.8104008619651202e-01 5.7263555385573715e-04 -1.5001484447908485e-04  1.8140584531851958e-01 9.2886517728921290e-04 -3.6714794721927834e-04  1.8190564289228078e-01 1.3560725302892672e-03 -6.2625386532485811e-04  1.8215789965075588e-01 1.4310629728244207e-03 -9.0057406197953632e-04  1.8185381476441173e-01 6.5561733574388749e-04 -7.6853592701834521e-04  1.8132054119839189e-01 1.1904845133784404e-03 -5.0074846736125923e-03  1.9421758303015918e-01 2.5507985201135694e-04 7.2884323159876438e-05  1.9407097553634925e-01 8.5966458368453934e-05 -4.3193394928737507e-04  1.9441882829439427e-01 1.9097348711077309e-04 1.0566462213232473e-04  1.9452547948814533e-01 1.9163342537241524e-04 7.5673023340037875e-05  1.9465520834969821e-01 2.4971218214620868e-04 -1.1648854796194672e-06  1.9491491908143430e-01 3.6445402561087481e-04 -1.1503012950750243e-04  1.9536191874783920e-01 5.3374646061809389e-04 -2.2958228276859409e-04  1.9587624279957752e-01 6.8930452645332631e-04 -3.1616925435651468e-04  1.9587722641376890e-01 6.1076145346414463e-04 -3.8126516525375663e-04  1.9518909178506921e-01 1.9641759020179638e-05 -9.6336932360891218e-05  1.9471818873318100e-01 5.7392393633358993e-04 -3.3489973271513683e-03  1.8051523100359293e-01 1.7324347609959148e-04 9.1251450888772510e-05  1.8018137088234509e-01 3.7004448009634321e-05 -3.8933963370817837e-04  1.8076638671883899e-01 1.1821514584625146e-04 1.2432633154698476e-04  1.8089470293099333e-01 8.4971214402763959e-05 1.1379902836543740e-04  1.8103414980742771e-01 7.9872121433058864e-05 7.409551