<?xml version="1.0"?>
<VTKFile type="UnstructuredGrid"  version="0.1"  >
<UnstructuredGrid>
<Piece  NumberOfPoints="539" NumberOfCells="2160">
<Points>
<DataArray  type="Float64"  NumberOfComponents="3"  format="ascii">0 0.2 0.2  0.1 0.2 0.2  0.1 0.3 0.2  0.1 0.3 0.3  0.1 0.2 0.3  0 0.2 0.3  0 0.3 0.2  0 0.3 0.3  0.2 0.2 0.2  0.2 0.3 0.2  0.2 0.3 0.3  0.2 0.2 0.3  0.3 0.2 0.2  0.3 0.3 0.2  0.3 0.3 0.3  0.3 0.2 0.3  0.4 0.2 0.2  0.4 0.3 0.2  0.4 0.3 0.3  0.4 0.2 0.3  0.5 0.2 0.2  0.5 0.3 0.2  0.5 0.3 0.3  0.5 0.2 0.3  0.6 0.2 0.2  0.6 0.3 0.2  0.6 0.3 0.3  0.6 0.2 0.3  0.7 0.2 0.2  0.7 0.3 0.2  0.7 0.3 0.3  0.7 0.2 0.3  0.8 0.2 0.2  0.8 0.3 0.2  0.8 0.3 0.3  0.8 0.2 0.3  0.9 0.2 0.2  0.9 0.3 0.2  0.9 0.3 0.3  0.9 0.2 0.3  1 0.2 0.2  1 0.3 0.2  1 0.3 0.3  1 0.2 0.3  0.1 0.4 0.2  0.1 0.4 0.3  0 0.4 0.2  0 0.4 0.3  0.2 0.4 0.2  0.2 0.4 0.3  0.3 0.4 0.2  0.3 0.4 0.3  0.4 0.4 0.2  0.4 0.4 0.3  0.5 0.4 0.2  0.5 0.4 0.3  0.6 0.4 0.2  0.6 0.4 0.3  0.7 0.4 0.2  0.7 0.4 0.3  0.8 0.4 0.2  0.8 0.4 0.3  0.9 0.4 0.2  0.9 0.4 0.3  1 0.4 0.2  1 0.4 0.3  0.1 0.5 0.2  0.1 0.5 0.3  0 0.5 0.2  0 0.5 0.3  0.2 0.5 0.2  0.2 0.5 0.3  0.3 0.5 0.2  0.3 0.5 0.3  0.4 0.5 0.2  0.4 0.5 0.3  0.5 0.5 0.2  0.5 0.5 0.3  0.6 0.5 0.2  0.6 0.5 0.3  0.7 0.5 0.2  0.7 0.5 0.3  0.8 0.5 0.2  0.8 0.5 0.3  0.9 0.5 0.2  0.9 0.5 0.3  1 0.5 0.2  1 0.5 0.3  0.1 0.6 0.2  0.1 0.6 0.3  0 0.6 0.2  0 0.6 0.3  0.2 0.6 0.2  0.2 0.6 0.3  0.3 0.6 0.2  0.3 0.6 0.3  0.4 0.6 0.2  0.4 0.6 0.3  0.5 0.6 0.2  0.5 0.6 0.3  0.6 0.6 0.2  0.6 0.6 0.3  0.7 0.6 0.2  0.7 0.6 0.3  0.8 0.6 0.2  0.8 0.6 0.3  0.9 0.6 0.2  0.9 0.6 0.3  1 0.6 0.2  1 0.6 0.3  0.1 0.7 0.2  0.1 0.7 0.3  0 0.7 0.2  0 0.7 0.3  0.2 0.7 0.2  0.2 0.7 0.3  0.3 0.7 0.2  0.3 0.7 0.3  0.4 0.7 0.2  0.4 0.7 0.3  0.5 0.7 0.2  0.5 0.7 0.3  0.6 0.7 0.2  0.6 0.7 0.3  0.7 0.7 0.2  0.7 0.7 0.3  0.8 0.7 0.2  0.8 0.7 0.3  0.9 0.7 0.2  0.9 0.7 0.3  1 0.7 0.2  1 0.7 0.3  0.1 0.8 0.2  0.1 0.8 0.3  0 0.8 0.2  0 0.8 0.3  0.2 0.8 0.2  0.2 0.8 0.3  0.3 0.8 0.2  0.3 0.8 0.3  0.4 0.8 0.2  0.4 0.8 0.3  0.5 0.8 0.2  0.5 0.8 0.3  0.6 0.8 0.2  0.6 0.8 0.3  0.7 0.8 0.2  0.7 0.8 0.3  0.8 0.8 0.2  0.8 0.8 0.3  0.9 0.8 0.2  0.9 0.8 0.3  1 0.8 0.2  1 0.8 0.3  0.1 0.3 0.4  0.1 0.2 0.4  0 0.2 0.4  0 0.3 0.4  0.2 0.3 0.4  0.2 0.2 0.4  0.3 0.3 0.4  0.3 0.2 0.4  0.4 0.3 0.4  0.4 0.2 0.4  0.5 0.3 0.4  0.5 0.2 0.4  0.6 0.3 0.4  0.6 0.2 0.4  0.7 0.3 0.4  0.7 0.2 0.4  0.8 0.3 0.4  0.8 0.2 0.4  0.9 0.3 0.4  0.9 0.2 0.4  1 0.3 0.4  1 0.2 0.4  0.1 0.4 0.4  0 0.4 0.4  0.2 0.4 0.4  0.3 0.4 0.4  0.4 0.4 0.4  0.5 0.4 0.4  0.6 0.4 0.4  0.7 0.4 0.4  0.8 0.4 0.4  0.9 0.4 0.4  1 0.4 0.4  0.1 0.5 0.4  0 0.5 0.4  0.2 0.5 0.4  0.3 0.5 0.4  0.4 0.5 0.4  0.5 0.5 0.4  0.6 0.5 0.4  0.7 0.5 0.4  0.8 0.5 0.4  0.9 0.5 0.4  1 0.5 0.4  0.1 0.6 0.4  0 0.6 0.4  0.2 0.6 0.4  0.3 0.6 0.4  0.4 0.6 0.4  0.5 0.6 0.4  0.6 0.6 0.4  0.7 0.6 0.4  0.8 0.6 0.4  0.9 0.6 0.4  1 0.6 0.4  0.1 0.7 0.4  0 0.7 0.4  0.2 0.7 0.4  0.3 0.7 0.4  0.4 0.7 0.4  0.5 0.7 0.4  0.6 0.7 0.4  0.7 0.7 0.4  0.8 0.7 0.4  0.9 0.7 0.4  1 0.7 0.4  0.1 0.8 0.4  0 0.8 0.4  0.2 0.8 0.4  0.3 0.8 0.4  0.4 0.8 0.4  0.5 0.8 0.4  0.6 0.8 0.4  0.7 0.8 0.4  0.8 0.8 0.4  0.9 0.8 0.4  1 0.8 0.4  0.1 0.3 0.5  0.1 0.2 0.5  0 0.2 0.5  0 0.3 0.5  0.2 0.3 0.5  0.2 0.2 0.5  0.3 0.3 0.5  0.3 0.2 0.5  0.4 0.3 0.5  0.4 0.2 0.5  0.5 0.3 0.5  0.5 0.2 0.5  0.6 0.3 0.5  0.6 0.2 0.5  0.7 0.3 0.5  0.7 0.2 0.5  0.8 0.3 0.5  0.8 0.2 0.5  0.9 0.3 0.5  0.9 0.2 0.5  1 0.3 0.5  1 0.2 0.5  0.1 0.4 0.5  0 0.4 0.5  0.2 0.4 0.5  0.3 0.4 0.5  0.4 0.4 0.5  0.5 0.4 0.5  0.6 0.4 0.5  0.7 0.4 0.5  0.8 0.4 0.5  0.9 0.4 0.5  1 0.4 0.5  0.1 0.5 0.5  0 0.5 0.5  0.2 0.5 0.5  0.3 0.5 0.5  0.4 0.5 0.5  0.5 0.5 0.5  0.6 0.5 0.5  0.7 0.5 0.5  0.8 0.5 0.5  0.9 0.5 0.5  1 0.5 0.5  0.1 0.6 0.5  0 0.6 0.5  0.2 0.6 0.5  0.3 0.6 0.5  0.4 0.6 0.5  0.5 0.6 0.5  0.6 0.6 0.5  0.7 0.6 0.5  0.8 0.6 0.5  0.9 0.6 0.5  1 0.6 0.5  0.1 0.7 0.5  0 0.7 0.5  0.2 0.7 0.5  0.3 0.7 0.5  0.4 0.7 0.5  0.5 0.7 0.5  0.6 0.7 0.5  0.7 0.7 0.5  0.8 0.7 0.5  0.9 0.7 0.5  1 0.7 0.5  0.1 0.8 0.5  0 0.8 0.5  0.2 0.8 0.5  0.3 0.8 0.5  0.4 0.8 0.5  0.5 0.8 0.5  0.6 0.8 0.5  0.7 0.8 0.5  0.8 0.8 0.5  0.9 0.8 0.5  1 0.8 0.5  0.1 0.3 0.6  0.1 0.2 0.6  0 0.2 0.6  0 0.3 0.6  0.2 0.3 0.6  0.2 0.2 0.6  0.3 0.3 0.6  0.3 0.2 0.6  0.4 0.3 0.6  0.4 0.2 0.6  0.5 0.3 0.6  0.5 0.2 0.6  0.6 0.3 0.6  0.6 0.2 0.6  0.7 0.3 0.6  0.7 0.2 0.6  0.8 0.3 0.6  0.8 0.2 0.6  0.9 0.3 0.6  0.9 0.2 0.6  1 0.3 0.6  1 0.2 0.6  0.1 0.4 0.6  0 0.4 0.6  0.2 0.4 0.6  0.3 0.4 0.6  0.4 0.4 0.6  0.5 0.4 0.6  0.6 0.4 0.6  0.7 0.4 0.6  0.8 0.4 0.6  0.9 0.4 0.6  1 0.4 0.6  0.1 0.5 0.6  0 0.5 0.6  0.2 0.5 0.6  0.3 0.5 0.6  0.4 0.5 0.6  0.5 0.5 0.6  0.6 0.5 0.6  0.7 0.5 0.6  0.8 0.5 0.6  0.9 0.5 0.6  1 0.5 0.6  0.1 0.6 0.6  0 0.6 0.6  0.2 0.6 0.6  0.3 0.6 0.6  0.4 0.6 0.6  0.5 0.6 0.6  0.6 0.6 0.6  0.7 0.6 0.6  0.8 0.6 0.6  0.9 0.6 0.6  1 0.6 0.6  0.1 0.7 0.6  0 0.7 0.6  0.2 0.7 0.6  0.3 0.7 0.6  0.4 0.7 0.6  0.5 0.7 0.6  0.6 0.7 0.6  0.7 0.7 0.6  0.8 0.7 0.6  0.9 0.7 0.6  1 0.7 0.6  0.1 0.8 0.6  0 0.8 0.6  0.2 0.8 0.6  0.3 0.8 0.6  0.4 0.8 0.6  0.5 0.8 0.6  0.6 0.8 0.6  0.7 0.8 0.6  0.8 0.8 0.6  0.9 0.8 0.6  1 0.8 0.6  0.1 0.3 0.7  0.1 0.2 0.7  0 0.2 0.7  0 0.3 0.7  0.2 0.3 0.7  0.2 0.2 0.7  0.3 0.3 0.7  0.3 0.2 0.7  0.4 0.3 0.7  0.4 0.2 0.7  0.5 0.3 0.7  0.5 0.2 0.7  0.6 0.3 0.7  0.6 0.2 0.7  0.7 0.3 0.7  0.7 0.2 0.7  0.8 0.3 0.7  0.8 0.2 0.7  0.9 0.3 0.7  0.9 0.2 0.7  1 0.3 0.7  1 0.2 0.7  0.1 0.4 0.7  0 0.4 0.7  0.2 0.4 0.7  0.3 0.4 0.7  0.4 0.4 0.7  0.5 0.4 0.7  0.6 0.4 0.7  0.7 0.4 0.7  0.8 0.4 0.7  0.9 0.4 0.7  1 0.4 0.7  0.1 0.5 0.7  0 0.5 0.7  0.2 0.5 0.7  0.3 0.5 0.7  0.4 0.5 0.7  0.5 0.5 0.7  0.6 0.5 0.7  0.7 0.5 0.7  0.8 0.5 0.7  0.9 0.5 0.7  1 0.5 0.7  0.1 0.6 0.7  0 0.6 0.7  0.2 0.6 0.7  0.3 0.6 0.7  0.4 0.6 0.7  0.5 0.6 0.7  0.6 0.6 0.7  0.7 0.6 0.7  0.8 0.6 0.7  0.9 0.6 0.7  1 0.6 0.7  0.1 0.7 0.7  0 0.7 0.7  0.2 0.7 0.7  0.3 0.7 0.7  0.4 0.7 0.7  0.5 0.7 0.7  0.6 0.7 0.7  0.7 0.7 0.7  0.8 0.7 0.7  0.9 0.7 0.7  1 0.7 0.7  0.1 0.8 0.7  0 0.8 0.7  0.2 0.8 0.7  0.3 0.8 0.7  0.4 0.8 0.7  0.5 0.8 0.7  0.6 0.8 0.7  0.7 0.8 0.7  0.8 0.8 0.7  0.9 0.8 0.7  1 0.8 0.7  0.1 0.3 0.8  0.1 0.2 0.8  0 0.2 0.8  0 0.3 0.8  0.2 0.3 0.8  0.2 0.2 0.8  0.3 0.3 0.8  0.3 0.2 0.8  0.4 0.3 0.8  0.4 0.2 0.8  0.5 0.3 0.8  0.5 0.2 0.8  0.6 0.3 0.8  0.6 0.2 0.8  0.7 0.3 0.8  0.7 0.2 0.8  0.8 0.3 0.8  0.8 0.2 0.8  0.9 0.3 0.8  0.9 0.2 0.8  1 0.3 0.8  1 0.2 0.8  0.1 0.4 0.8  0 0.4 0.8  0.2 0.4 0.8  0.3 0.4 0.8  0.4 0.4 0.8  0.5 0.4 0.8  0.6 0.4 0.8  0.7 0.4 0.8  0.8 0.4 0.8  0.9 0.4 0.8  1 0.4 0.8  0.1 0.5 0.8  0 0.5 0.8  0.2 0.5 0.8  0.3 0.5 0.8  0.4 0.5 0.8  0.5 0.5 0.8  0.6 0.5 0.8  0.7 0.5 0.8  0.8 0.5 0.8  0.9 0.5 0.8  1 0.5 0.8  0.1 0.6 0.8  0 0.6 0.8  0.2 0.6 0.8  0.3 0.6 0.8  0.4 0.6 0.8  0.5 0.6 0.8  0.6 0.6 0.8  0.7 0.6 0.8  0.8 0.6 0.8  0.9 0.6 0.8  1 0.6 0.8  0.1 0.7 0.8  0 0.7 0.8  0.2 0.7 0.8  0.3 0.7 0.8  0.4 0.7 0.8  0.5 0.7 0.8  0.6 0.7 0.8  0.7 0.7 0.8  0.8 0.7 0.8  0.9 0.7 0.8  1 0.7 0.8  0.1 0.8 0.8  0 0.8 0.8  0.2 0.8 0.8  0.3 0.8 0.8  0.4 0.8 0.8  0.5 0.8 0.8  0.6 0.8 0.8  0.7 0.8 0.8  0.8 0.8 0.8  0.9 0.8 0.8  1 0.8 0.8  </DataArray>
</Points>
<Cells>
[...]
<PointData  Vectors="f_23"> 
<DataArray  type="Float64"  Name="f_23"  NumberOfComponents="3" format="ascii">7.9222706171302342e-04 8.1418842245213282e-05 -9.3105456370248751e-06  7.3398370813240429e-04 1.0526256099175088e-04 -1.0632226170537892e-05  7.7100609571037373e-04 7.8305480413731776e-05 -9.1824770166802820e-06  6.7370887432791793e-02 1.6327668866085904e-04 3.8135741459029897e-04  7.4770082329944838e-04 1.0025105458474611e-04 -2.1201942783132758e-06  7.9142748562580295e-04 6.9535394805315560e-05 1.0168257625197881e-06  8.2482388426604377e-04 5.9091331101653968e-05 -1.4094666011465107e-05  6.7158441448387257e-02 2.7637553669486372e-04 7.3032684629568869e-04  6.2919110818294109e-04 1.5825792617988211e-04 -8.2709929450723377e-06  6.7114470078660120e-04 1.2398880304573327e-04 -9.0067620080432632e-06  6.6851705466248273e-02 5.7921822309663961e-05 2.4591290663435899e-04  6.6247410599361853e-04 1.5795261593791433e-04 4.3492716699338365e-06  4.8425377126301740e-04 1.9828887492770239e-04 -2.5836237456941152e-07  5.3331523149242747e-04 1.5732015769284879e-04 1.0308349879822138e-06  6.6810361192890050e-02 -2.0339909198679638e-05 2.9683582515970615e-04  5.3603935950080346e-04 2.1358652966388779e-04 1.8338185150206076e-05  2.8336940465653067e-04 2.2134803962096491e-04 2.0874639120277427e-05  3.3984163300504857e-04 1.7790122501102815e-04 2.2543174135868300e-05  6.6647085331428726e-02 -1.0276718729332617e-04 4.3492266401190999e-04  3.6020444289103855e-04 2.6007077798223158e-04 4.6760940860637087e-05  5.8283866343601486e-06 2.1765032792532492e-04 6.4936080642127853e-05  6.9306335122345025e-05 1.7952189710660903e-04 6.2205570015338185e-05  6.6370452874983180e-02 -2.0672868245337245e-04 6.1622353389402659e-04  1.1036301354052433e-04 2.8418623831362146e-04 1.0102442259945336e-04  -3.5637304166740292e-04 1.8073708197459819e-04 1.2744430549069995e-04  -2.8870905914989045e-04 1.5652081318679107e-04 1.1563519092854251e-04  6.6044195584394685e-02 -3.1163769375795156e-04 7.6289706083571061e-04  -2.3790223045081437e-04 2.6511343687412513e-04 1.8503414751319769e-04  -7.5670073376613576e-04 1.1851694789012130e-04 1.6233345353694505e-04  -6.9716140231969336e-04 1.1086416813620587e-04 1.4687477083542564e-04  6.5875082036142271e-02 -3.8228333394102454e-04 6.9703665284538490e-04  -6.6577322435847379e-04 1.9380908227313053e-04 2.5734431128647263e-04  -1.0538587148763185e-03 5.2737593827465045e-05 1.1589652746000221e-04  -1.0308319131030147e-03 5.8027205905217978e-05 1.0892920762880294e-04  6.6345564192013332e-02 -3.8526334752801776e-04 1.3749538929257732e-04  -1.0504502250891759e-03 9.2021619495772069e-05 2.0226625330318229e-04  -1.1609900092624244e-03 1.8156413327995149e-05 3.6295829563452447e-05  -1.1679758051247131e-03 1.9009371316283175e-05 5.3663603254473973e-05  6.7844054289131331e-02 -2.2703193401394487e-04 -5.5870239355048756e-04  -1.2248716216551468e-03 3.9419238574992976e-05 7.0574379981568500e-05  -1.2000418391218586e-03 2.5209359214444575e-05 7.8680409879127762e-05  -1.1889198766880681e-03 1.3425502444061636e-05 7.2839961618020209e-05  6.9639785498751480e-02 2.4338747120373978e-04 6.8141440633992208e-04  -1.2581831605559036e-03 2.3611512903680856e-05 9.9980886877392653e-05  8.1264275991165739e-04 4.8241018344705029e-05 -9.7298025574809261e-06  1.1033582138529453e-01 -8.4041134063247866e-05 4.2889798284188407e-04  8.6973560058906053e-04 3.5154674157829722e-05 -1.3366471600965074e-05  1.0981627729963646e-01 3.2220503296090928e-04 8.6385540265409915e-04  7.0151010818835413e-04 7.7012504030432070e-05 -6.2804206721697188e-06  1.0989502497008130e-01 -9.0378494226914664e-05 2.5731121426259798e-04  5.5626000893050579e-04 9.8379509754796575e-05 8.0155172821656326e-06  1.0983239027843848e-01 -1.2790615954059856e-04 2.6538001884493642e-04  3.5120739675200601e-04 1.0987322401503364e-04 3.5740186179799699e-05  1.0971575882932601e-01 -1.8821375849534128e-04 3.3838627981200666e-04  6.5450521859804914e-05 1.0832471966097488e-04 7.9943385795075238e-05  1.0954240261821419e-01 -2.6353665464713477e-04 4.0199643748706654e-04  -3.0847504170642716e-04 9.3195243609137668e-05 1.3198861792351299e-04  1.0942200154540371e-01 -3.1561429051469800e-04 3.6925254895510298e-04  -7.2945987880660280e-04 6.8615900928495468e-05 1.5650015188171137e-04  1.0957729589658827e-01 -2.7998157752292640e-04 1.0547428609285668e-04  -1.0663042004199720e-03 4.0989910929312263e-05 1.1315149440294849e-04  1.1030973830755775e-01 -1.1121960166828423e-04 -4.8007218905205576e-04  -1.1943833919954216e-03 1.4305359910889014e-05 5.7848924432921413e-05  1.1169894880904176e-01 1.7517112348047317e-04 -8.3838343185972241e-04  -1.2064532095790125e-03 8.3131034535488941e-06 7.9434090876944030e-05  1.1353052523782114e-01 1.4342236323811606e-04 6.2443971363465719e-04  8.3672655253067886e-04 2.3639286845718773e-05 -7.4134158202708941e-06  1.2219022194076572e-01 -8.6416817926042428e-05 4.0289002039468934e-04  8.9561217434424494e-04 1.4330616582132146e-05 -1.0197235363060649e-05  1.2169304979952963e-01 2.1759331291170845e-04 8.7359323317171543e-04  7.1945873827317639e-04 3.9165491697442827e-05 -3.3945556978765133e-06  1.2178552579982443e-01 -1.3117057506547208e-04 2.1980376018351864e-04  5.6712572997303561e-04 5.0102332934684253e-05 1.2269105830891931e-05  1.2171043433985783e-01 -1.4271751256985822e-04 2.1717114596093949e-04  3.5229700790969699e-04 5.3043547064616725e-05 4.1450541696395630e-05  1.2157867859558302e-01 -1.6507730556533792e-04 2.6629614322800136e-04  5.6964055533885337e-05 4.6032171191391116e-05 8.5403727506027800e-05  1.2142409837060729e-01 -1.9284107712950183e-04 2.8952144478674031e-04  -3.2263756429622793e-04 3.2444145870117373e-05 1.3435197051047220e-04  1.2138621233647397e-01 -1.9224540888055473e-04 2.0515957453600602e-04  -7.4497001413062036e-04 2.1685843515996672e-05 1.5578301383573534e-04  1.2169855876390942e-01 -1.0896885990895737e-04 -9.6271379969611426e-05  -1.0821330312314986e-03 1.9269441943070953e-05 1.1252736277258576e-04  1.2257806280202399e-01 8.7338579682254126e-05 -6.3070480401829806e-04  -1.2094461523957977e-03 6.6363937808289077e-06 5.8166805201286491e-05  1.2391174101879340e-01 3.1411948086622181e-04 -7.8941160558380604e-04  -1.2219499162920775e-03 1.1958871510896801e-05 7.9850957977231738e-05  1.2564871896541308e-01 2.0132268277698922e-04 4.9806689209293080e-04  8.4924805341922926e-04 6.9853321199714079e-06 -4.0122963459700512e-06  1.1037617875716546e-01 -1.0320133239253737e-04 3.4988858432654616e-04  9.0625259438765744e-04 -2.4810671303665055e-06 -5.3919476912220906e-06  1.0998647629478291e-01 1.0540487257127527e-04 8.1659999744398016e-04  7.3126804942919075e-04 1.4283068484603695e-05 -8.3927604878280349e-07  1.0999061577118117e-01 -1.2409248052201255e-04 1.9207182077441324e-04  5.7405324762798489e-04 2.1160220089222787e-05 1.2869350688904011e-05  1.0991006770599025e-01 -1.0914654418626951e-04 1.8930419431305355e-04  3.5130424361534522e-04 2.2138564104729481e-05 3.9258628476195371e-05  1.0977076676837220e-01 -9.7674039774314715e-05 2.2983378790071703e-04  4.9490912389173506e-05 1.4928185409377464e-05 7.7998257635819668e-05  1.0961710885607548e-01 -8.6721159605100077e-05 2.4202946271980756e-04  -3.2957005089024981e-04 3.4276466311055516e-06 1.1951931874337789e-04  1.0959915512870788e-01 -5.6078816816071887e-05 1.5223502601487241e-04  -7.4458159462214971e-04 -1.3715162212648185e-06 1.3722753640727317e-04  1.0993855507351787e-01 2.2598687890586936e-05 -1.2804615776737145e-04  -1.0794063925236993e-03 8.8486908822352382e-06 9.9515357970703235e-05  1.1079137694299869e-01 1.5924475956524936e-04 -5.6309317746004045e-04  -1.2156119489096495e-03 3.1634062523204511e-06 5.1495780559705400e-05  1.1197132027692434e-01 2.5153527290523015e-04 -5.9812457233631236e-04  -1.2375540142474789e-03 2.0518417089699894e-05 6.9573694085664397e-05  1.1335914126288237e-01 1.7391804617515494e-04 4.9879593024929547e-04  8.6075201290367769e-04 -4.9902303168308694e-06 -2.1909023970809211e-06  6.8182995338946631e-02 -8.7179941165863302e-05 2.7626213925522529e-04  9.1179904987749344e-04 -6.9119453007062309e-06 -6.3736061521364595e-07  6.8432033348103549e-02 2.8525626605122414e-04 6.7079537308774165e-04  7.4991668476955160e-04 -4.3708334398278210e-07 -1.7844111596787681e-06  6.7858008656341035e-02 -6.2177436703525214e-05 1.5302564651076920e-04  5.9387823619590717e-04 9.1576747482315321e-06 5.7405349583206150e-06  6.7812600457993422e-02 -1.1793475820602379e-06 1.5107006714238120e-04  3.6850337743367048e-04 1.5806042185400932e-05 2.5798550181095211e-05  6.7719553405959546e-02 5.1430802663843310e-05 1.8055581930763809e-04  6.3460129480168414e-05 1.5361439053422393e-05 5.7285059768577462e-05  6.7599048653675053e-02 1.0501061485453164e-04 1.8578806966128053e-04  -3.1674587077066646e-04 1.0006221850046411e-05 9.1311985098343495e-05  6.7558183443774775e-02 1.6380301553708783e-04 1.1102988155397360e-04  -7.2921981919114095e-04 7.4575514178001427e-06 1.0714481936723932e-04  6.7760253178948862e-02 2.2714403719394021e-04 -9.9608853481315243e-05  -1.0650020913092657e-03 1.4723728820844084e-05 8.0351202238911805e-05  6.8343671789080240e-02 2.9127915213477589e-04 -3.8899716066015990e-04  -1.2165763559561600e-03 1.7098087661590455e-05 3.9749689066826624e-05  6.9282011785987252e-02 3.5840151599570634e-04 -3.7433146013859096e-04  -1.2500920303971433e-03 2.6739352347366069e-05 4.9666310089988655e-05  6.9810151600043419e-02 1.3323112124304383e-04 5.8491563287285317e-04  8.9729334659353021e-04 -6.1886017510753872e-06 -5.8512398148212465e-06  9.1267115686292975e-04 -3.3092796104217696e-06 -2.2972664382659074e-06  9.4455178247113548e-04 -1.4053161778789476e-05 -2.0217535446835854e-07  9.4397472100227512e-04 -1.0142120218676862e-05 2.2938171124175294e-07  8.0173871228502195e-04 -1.3892841303310620e-06 -1.1185059519725962e-05  8.4583481060051613e-04 -5.5611255373231420e-06 -3.9308614562577198e-06  6.6831044117696549e-04 7.1764467822985835e-06 -1.0938287936238521e-05  7.2850941554958846e-04 4.3926887546707476e-06 2.1933637197632217e-07  4.7402212797751514e-04 1.6019220181039881e-05 -7.2859368880143123e-06  5.6023423125311025e-04 1.3709139094759765e-05 1.4795279258448561e-05  2.0116326121911987e-04 1.8956812679070766e-05 5.8160847393317192e-06  3.2145035491272294e-04 1.6850010199127756e-05 4.3059562085899061e-05  -1.5553280521288278e-04 1.6167783946601302e-05 2.7478467828385718e-05  -1.1644292413942815e-06 1.3118828964112410e-05 8.1906512309558625e-05  -5.7472753358123825e-04 1.2787354015178083e-05 5.0086323013013636e-05  -4.0273934070618326e-04 8.1531435278209316e-06 1.1743386380609527e-04  -9.7224029915645349e-04 1.0693832350752486e-05 5.8469776273806831e-05  -8.2875368697944327e-04 1.0918608316094393e-05 1.2361758715947679e-04  -1.1913681871509563e-03 1.3543437176972067e-05 4.0333133664092484e-05  -1.1278210465258441e-03 1.6345240303873551e-05 8.4889954712470708e-05  -1.2438009725962980e-03 2.6677932916137542e-05 2.9267269645959765e-05  -1.2328686072609592e-03 3.2478442707421499e-05 5.6742319800062530e-05  1.1043766774190360e-01 1.5977290258330999e-04 1.9754635643574829e-04  7.5840080525256320e-04 9.6020353415113329e-05 1.2389823919261928e-05  7.9847689893456947e-04 6.4976590901952541e-05 9.3241363202239799e-06  1.0994743728084005e-01 2.7989986980930820e-04 8.6358721971578330e-04  1.1008532707273627e-01 7.5474408200825805e-05 1.6705311680413837e-04  6.8397639210202607e-04 1.6059578429146169e-04 2.8946720585798188e-05  1.1009068823823237e-01 -1.3883371331142032e-05 2.9230314850261266e-04  5.7300431741553180e-04 2.3344102040783295e-04 5.8529006179584854e-05  1.1003990635109544e-01 -1.0773985734502809e-04 5.0513253842563333e-04  4.1432001754885346e-04 3.1568993168659177e-04 1.0721468949712894e-04  1.0986173644653509e-01 -2.4490499612069705e-04 7.8544857751750333e-04  1.7862522838884418e-04 3.9602916357796134e-04 1.8488580605170225e-04  1.0952444680765094e-01 -4.2826101350650422e-04 1.0554510857926807e-03  -1.7414216804161295e-04 4.3375225027428115e-04 3.0875462271391717e-04  1.0907730781439608e-01 -5.5418611541452746e-04 1.0495033633216100e-03  -6.5257788679339338e-04 3.7044628222561400e-04 4.6696001249548624e-04  1.0922594645561891e-01 -5.9519298012852817e-04 3.2441716699920946e-04  -1.1188983705163419e-03 2.0225432145092295e-04 4.5282413237233716e-04  1.1128612226014070e-01 -4.7320525101572338e-04 -9.9116191275046262e-04  -1.3789212385505202e-03 8.2884207432416013e-05 1.3116563665935564e-04  1.1323498983004245e-01 3.3518583610537617e-04 1.3864937534873939e-03  -1.4712866776607769e-03 4.9289782086948861e-05 1.7255686293350444e-04  1.7800275294397250e-01 -1.1748668133663881e-04 2.4489793644911649e-04  1.7774241336037866e-01 3.4576167324658000e-04 1.0217739172881002e-03  1.7773938501701511e-01 -9.2443677895897479e-05 2.0260621693285658e-04  1.7764222662820356e-01 -1.4668341118927403e-04 2.9493051259698466e-04  1.7759735895775905e-01 -2.4287759555399115e-04 4.3330407165516783e-04  1.7751080073473097e-01 -3.8581764726027028e-04 5.4226182405190282e-04  1.7741036858499001e-01 -5.3919245287613977e-04 4.9482289570526735e-04  1.7749800126716020e-01 -5.6306345469632198e-04 5.7133758523000517e-05  1.7831147232157069e-01 -2.7110318077123427e-04 -1.0076274302744947e-03  1.8028655129058432e-01 3.4039272412706356e-04 -1.9627336934426127e-03  1.8239498690248734e-01 1.6273345070336463e-04 5.9961174225159255e-04  1.9734826940266961e-01 -7.6871888309605225e-05 2.3299033277359232e-04  1.9717448149214045e-01 2.4571590043917448e-04 1.0358760854535789e-03  1.9710976142018075e-01 -1.2523738142351519e-04 1.8508088776300906e-04  1.9698972693631128e-01 -1.4775324815673681e-04 2.5652968903047230e-04  1.9691667772546709e-01 -1.9488882253496570e-04 3.5584058655656900e-04  1.9683564300801246e-01 -2.6822367098942336e-04 3.9667994436714475e-04  1.9682123541521337e-01 -3.2548459306429712e-04 2.5864931714719258e-04  1.9714722504979371e-01 -2.5697023644807816e-04 -2.4840149231410375e-04  1.9832009573699519e-01 7.6354267715322127e-05 -1.2720845148667542e-03  2.0037825620139010e-01 6.2895787854880096e-04 -1.9641943150912338e-03  2.0234177275484927e-01 3.7360356817137347e-04 1.5598000139835930e-04  1.7800684481330151e-01 -7.2840716700174713e-05 1.8460529910865742e-04  1.7797593086471755e-01 1.4032353344762126e-04 9.5835105177358420e-04  1.7776721602245005e-01 -1.0797492149561944e-04 1.5451971498523556e-04  1.7764373679039408e-01 -1.0085251017430265e-04 2.1929941025715247e-04  1.7755288288940135e-01 -1.0428855232345897e-04 3.0150281354955790e-04  1.7745667994503972e-01 -1.2225875308476819e-04 3.2467302273275848e-04  1.7745111937653513e-01 -1.2505859484066332e-04 1.8262602120720436e-04  1.7783594498249680e-01 -4.3831976663612805e-05 -2.7725748543659591e-04  1.7903669215236406e-01 2.0007288696333587e-04 -1.1453892133544946e-03  1.8091239060460512e-01 5.1304988788570096e-04 -1.5515592532066736e-03  1.8226237564407874e-01 3.1686490512873648e-04 1.7625718246952891e-04  1.1045367939279710e-01 -2.4609186781763278e-05 8.4270945360049714e-05  1.1109231025220334e-01 3.4291135180788816e-04 7.5634034487181750e-04  1.1024915916866926e-01 -3.5752048748557978e-05 8.6605515010210424e-05  1.1017015491671080e-01 1.2957527111750501e-05 1.4801611736802822e-04  1.1011814928536505e-01 5.9511013188931568e-05 2.1242902037442172e-04  1.1005101549653819e-01 9.7128181333966284e-05 2.3130398036901162e-04  1.1001752084645594e-01 1.3492405018500041e-04 1.2414047367453681e-04  1.1022956826573450e-01 1.9339091191330500e-04 -2.2335068186916639e-04  1.1105197815546601e-01 3.0349728580982417e-04 -8.0196138283855655e-04  1.1252087811326790e-01 4.8741277555854393e-04 -9.1148755097016066e-04  1.1263675839845058e-01 2.5736852275783285e-04 5.3146082462260423e-04  9.1655284993580604e-04 -5.0331137116992971e-07 2.7279168332072556e-06  9.4474663273793301e-04 -4.2893248209917854e-06 3.5090660907301695e-06  8.5331879556585651e-04 -7.8037452930423688e-07 8.6149427352503948e-06  7.4888124792534037e-04 6.2849055739428819e-06 2.6753277942604566e-05  5.9889007896307678e-04 1.0888981799806957e-05 6.1581958642700519e-05  3.8022061016553514e-04 9.3872000350437661e-06 1.1863882846490463e-04  7.0228380829830378e-05 -2.7442355669263358e-07 1.9510504976705798e-04  -3.4522166390736804e-04 -1.2532929012821581e-05 2.6890271856067793e-04  -8.2804559011399230e-04 -1.5044612988371205e-05 2.9093859932093253e-04  -1.1960530504183204e-03 -7.0055432777720522e-06 2.1539059724927332e-04  -1.3169400903148777e-03 1.4197665040187223e-05 1.6224477021568022e-04  1.2238431669386157e-01 1.4205472245693555e-04 1.5215073300931407e-04  7.7800312223250893e-04 8.9340831132949500e-05 2.2389745233927440e-05  8.1354697651357341e-04 5.9154591575575157e-05 1.3539289509097226e-05  1.2191840090392032e-01 2.8414334169907609e-04 6.8748204650679364e-04  1.2212153986740876e-01 5.2552245737864906e-05 7.1760564279352144e-05  7.1834802647052320e-04 1.5471427582539873e-04 4.9998890487657535e-05  1.2220910515419879e-01 -3.4379910356069280e-05 1.6625765093344861e-04  6.3156026175875939e-04 2.3932297314246384e-04 9.4682278853172716e-05  1.2223279068303405e-01 -1.3006079716884234e-04 3.3842298305605112e-04  5.0387515099362958e-04 3.5768888302041069e-04 1.6246813921703751e-04  1.2210911278976611e-01 -2.9169491877398018e-04 5.9011390538633336e-04  3.0097324842804263e-04 5.2070022781323640e-04 2.5728782037089278e-04  1.2169699808028844e-01 -6.0887651970058362e-04 9.1884546063236662e-04  -5.4015028957598997e-05 6.9855221015194279e-04 3.9197580018657735e-04  1.2091120631077611e-01 -1.0803374489069546e-03 1.1586296134283671e-03  -6.4963917923759355e-04 7.6680071717093222e-04 6.2301751341338907e-04  1.2030391247782640e-01 -1.0468934916570490e-03 8.0068945529027764e-04  -1.2458077245067758e-03 5.6239754520013294e-04 9.9880983701715093e-04  1.2280916298563432e-01 -1.0661715208608656e-03 -8.2940636043136887e-04  -1.5897433803038249e-03 2.4856776578250603e-04 3.5672184740083906e-04  1.2620476964519575e-01 -6.3378535630637188e-04 3.3151215061443793e-03  -1.7934147824117408e-03 1.5140109325105495e-04 2.1980679036646801e-04  1.9744540542608599e-01 -1.4294080745912559e-04 2.2736291403972712e-04  1.9725689584380154e-01 3.5267300235160390e-04 8.3247472646795701e-04  1.9725672935191671e-01 -1.1078914938742619e-04 1.1740100195079129e-04  1.9720185092931419e-01 -1.7663843094100788e-04 1.9780155124576832e-04  1.9717087436332106e-01 -2.9760389615448343e-04 3.1837272653061598e-04  1.9705204101010140e-01 -5.0590800488833410e-04 4.0235103647118573e-04  1.9677958784832064e-01 -8.2576575385895053e-04 3.2532698041056124e-04  1.9649270056445592e-01 -1.1000709918357408e-03 -1.6860784159603942e-04  1.9708641632227394e-01 -7.5554384893635211e-04 -1.3710904008178522e-03  1.9962416735856733e-01 5.1132557101121116e-04 -3.6346089995913993e-03  2.0250326848963124e-01 -3.1129032703242066e-04 7.9719672101492963e-04  2.1918700274947364e-01 -8.5998758848474427e-05 2.3254074884615053e-04  2.1909054856262905e-01 2.5829890030853493e-04 8.7202757463321074e-04  2.1900961997638146e-01 -1.2906488199168528e-04 1.1910140195528732e-04  2.1890881219885427e-01 -1.6478726592740708e-04 1.7929371809807787e-04  2.1883949719894247e-01 -2.3661391798682701e-04 2.5807719250544030e-04  2.1871579742939026e-01 -3.5757342799102226e-04 2.5706424047861802e-04  2.1851463462854934e-01 -4.9442807310657135e-04 4.2217981819175581e-05  2.1846809205653941e-01 -4.8631661483099860e-04 -5.8631236098075393e-04  2.1962277171034844e-01 -5.8797706551375988e-06 -1.8091532012349954e-03  2.2261084912308421e-01 1.0309811121770875e-03 -3.9246871551055990e-03  2.2515622687607814e-01 3.3109361926765861e-04 -6.0536483840183564e-04  1.9745691431681536e-01 -5.9555075483174414e-05 2.0212103518030071e-04  1.9749853439933970e-01 1.6777438023268831e-04 8.3683098298757014e-04  1.9727398069102411e-01 -1.0102218438358266e-04 1.0275782586318503e-04  1.9716578453993722e-01 -1.0350973082468506e-04 1.5428034508265662e-04  1.9707294834531472e-01 -1.2681645769405759e-04 2.1555756355887376e-04  1.9692982405590534e-01 -1.7621258957134701e-04 1.9672396803375257