<?xml version="1.0"?>
<VTKFile type="UnstructuredGrid"  version="0.1"  >
<UnstructuredGrid>
<Piece  NumberOfPoints="539" NumberOfCells="2160">
<Points>
<DataArray  type="Float64"  NumberOfComponents="3"  format="ascii">0 0.2 0.2  0.1 0.2 0.2  0.1 0.3 0.2  0.1 0.3 0.3  0.1 0.2 0.3  0 0.2 0.3  0 0.3 0.2  0 0.3 0.3  0.2 0.2 0.2  0.2 0.3 0.2  0.2 0.3 0.3  0.2 0.2 0.3  0.3 0.2 0.2  0.3 0.3 0.2  0.3 0.3 0.3  0.3 0.2 0.3  0.4 0.2 0.2  0.4 0.3 0.2  0.4 0.3 0.3  0.4 0.2 0.3  0.5 0.2 0.2  0.5 0.3 0.2  0.5 0.3 0.3  0.5 0.2 0.3  0.6 0.2 0.2  0.6 0.3 0.2  0.6 0.3 0.3  0.6 0.2 0.3  0.7 0.2 0.2  0.7 0.3 0.2  0.7 0.3 0.3  0.7 0.2 0.3  0.8 0.2 0.2  0.8 0.3 0.2  0.8 0.3 0.3  0.8 0.2 0.3  0.9 0.2 0.2  0.9 0.3 0.2  0.9 0.3 0.3  0.9 0.2 0.3  1 0.2 0.2  1 0.3 0.2  1 0.3 0.3  1 0.2 0.3  0.1 0.4 0.2  0.1 0.4 0.3  0 0.4 0.2  0 0.4 0.3  0.2 0.4 0.2  0.2 0.4 0.3  0.3 0.4 0.2  0.3 0.4 0.3  0.4 0.4 0.2  0.4 0.4 0.3  0.5 0.4 0.2  0.5 0.4 0.3  0.6 0.4 0.2  0.6 0.4 0.3  0.7 0.4 0.2  0.7 0.4 0.3  0.8 0.4 0.2  0.8 0.4 0.3  0.9 0.4 0.2  0.9 0.4 0.3  1 0.4 0.2  1 0.4 0.3  0.1 0.5 0.2  0.1 0.5 0.3  0 0.5 0.2  0 0.5 0.3  0.2 0.5 0.2  0.2 0.5 0.3  0.3 0.5 0.2  0.3 0.5 0.3  0.4 0.5 0.2  0.4 0.5 0.3  0.5 0.5 0.2  0.5 0.5 0.3  0.6 0.5 0.2  0.6 0.5 0.3  0.7 0.5 0.2  0.7 0.5 0.3  0.8 0.5 0.2  0.8 0.5 0.3  0.9 0.5 0.2  0.9 0.5 0.3  1 0.5 0.2  1 0.5 0.3  0.1 0.6 0.2  0.1 0.6 0.3  0 0.6 0.2  0 0.6 0.3  0.2 0.6 0.2  0.2 0.6 0.3  0.3 0.6 0.2  0.3 0.6 0.3  0.4 0.6 0.2  0.4 0.6 0.3  0.5 0.6 0.2  0.5 0.6 0.3  0.6 0.6 0.2  0.6 0.6 0.3  0.7 0.6 0.2  0.7 0.6 0.3  0.8 0.6 0.2  0.8 0.6 0.3  0.9 0.6 0.2  0.9 0.6 0.3  1 0.6 0.2  1 0.6 0.3  0.1 0.7 0.2  0.1 0.7 0.3  0 0.7 0.2  0 0.7 0.3  0.2 0.7 0.2  0.2 0.7 0.3  0.3 0.7 0.2  0.3 0.7 0.3  0.4 0.7 0.2  0.4 0.7 0.3  0.5 0.7 0.2  0.5 0.7 0.3  0.6 0.7 0.2  0.6 0.7 0.3  0.7 0.7 0.2  0.7 0.7 0.3  0.8 0.7 0.2  0.8 0.7 0.3  0.9 0.7 0.2  0.9 0.7 0.3  1 0.7 0.2  1 0.7 0.3  0.1 0.8 0.2  0.1 0.8 0.3  0 0.8 0.2  0 0.8 0.3  0.2 0.8 0.2  0.2 0.8 0.3  0.3 0.8 0.2  0.3 0.8 0.3  0.4 0.8 0.2  0.4 0.8 0.3  0.5 0.8 0.2  0.5 0.8 0.3  0.6 0.8 0.2  0.6 0.8 0.3  0.7 0.8 0.2  0.7 0.8 0.3  0.8 0.8 0.2  0.8 0.8 0.3  0.9 0.8 0.2  0.9 0.8 0.3  1 0.8 0.2  1 0.8 0.3  0.1 0.3 0.4  0.1 0.2 0.4  0 0.2 0.4  0 0.3 0.4  0.2 0.3 0.4  0.2 0.2 0.4  0.3 0.3 0.4  0.3 0.2 0.4  0.4 0.3 0.4  0.4 0.2 0.4  0.5 0.3 0.4  0.5 0.2 0.4  0.6 0.3 0.4  0.6 0.2 0.4  0.7 0.3 0.4  0.7 0.2 0.4  0.8 0.3 0.4  0.8 0.2 0.4  0.9 0.3 0.4  0.9 0.2 0.4  1 0.3 0.4  1 0.2 0.4  0.1 0.4 0.4  0 0.4 0.4  0.2 0.4 0.4  0.3 0.4 0.4  0.4 0.4 0.4  0.5 0.4 0.4  0.6 0.4 0.4  0.7 0.4 0.4  0.8 0.4 0.4  0.9 0.4 0.4  1 0.4 0.4  0.1 0.5 0.4  0 0.5 0.4  0.2 0.5 0.4  0.3 0.5 0.4  0.4 0.5 0.4  0.5 0.5 0.4  0.6 0.5 0.4  0.7 0.5 0.4  0.8 0.5 0.4  0.9 0.5 0.4  1 0.5 0.4  0.1 0.6 0.4  0 0.6 0.4  0.2 0.6 0.4  0.3 0.6 0.4  0.4 0.6 0.4  0.5 0.6 0.4  0.6 0.6 0.4  0.7 0.6 0.4  0.8 0.6 0.4  0.9 0.6 0.4  1 0.6 0.4  0.1 0.7 0.4  0 0.7 0.4  0.2 0.7 0.4  0.3 0.7 0.4  0.4 0.7 0.4  0.5 0.7 0.4  0.6 0.7 0.4  0.7 0.7 0.4  0.8 0.7 0.4  0.9 0.7 0.4  1 0.7 0.4  0.1 0.8 0.4  0 0.8 0.4  0.2 0.8 0.4  0.3 0.8 0.4  0.4 0.8 0.4  0.5 0.8 0.4  0.6 0.8 0.4  0.7 0.8 0.4  0.8 0.8 0.4  0.9 0.8 0.4  1 0.8 0.4  0.1 0.3 0.5  0.1 0.2 0.5  0 0.2 0.5  0 0.3 0.5  0.2 0.3 0.5  0.2 0.2 0.5  0.3 0.3 0.5  0.3 0.2 0.5  0.4 0.3 0.5  0.4 0.2 0.5  0.5 0.3 0.5  0.5 0.2 0.5  0.6 0.3 0.5  0.6 0.2 0.5  0.7 0.3 0.5  0.7 0.2 0.5  0.8 0.3 0.5  0.8 0.2 0.5  0.9 0.3 0.5  0.9 0.2 0.5  1 0.3 0.5  1 0.2 0.5  0.1 0.4 0.5  0 0.4 0.5  0.2 0.4 0.5  0.3 0.4 0.5  0.4 0.4 0.5  0.5 0.4 0.5  0.6 0.4 0.5  0.7 0.4 0.5  0.8 0.4 0.5  0.9 0.4 0.5  1 0.4 0.5  0.1 0.5 0.5  0 0.5 0.5  0.2 0.5 0.5  0.3 0.5 0.5  0.4 0.5 0.5  0.5 0.5 0.5  0.6 0.5 0.5  0.7 0.5 0.5  0.8 0.5 0.5  0.9 0.5 0.5  1 0.5 0.5  0.1 0.6 0.5  0 0.6 0.5  0.2 0.6 0.5  0.3 0.6 0.5  0.4 0.6 0.5  0.5 0.6 0.5  0.6 0.6 0.5  0.7 0.6 0.5  0.8 0.6 0.5  0.9 0.6 0.5  1 0.6 0.5  0.1 0.7 0.5  0 0.7 0.5  0.2 0.7 0.5  0.3 0.7 0.5  0.4 0.7 0.5  0.5 0.7 0.5  0.6 0.7 0.5  0.7 0.7 0.5  0.8 0.7 0.5  0.9 0.7 0.5  1 0.7 0.5  0.1 0.8 0.5  0 0.8 0.5  0.2 0.8 0.5  0.3 0.8 0.5  0.4 0.8 0.5  0.5 0.8 0.5  0.6 0.8 0.5  0.7 0.8 0.5  0.8 0.8 0.5  0.9 0.8 0.5  1 0.8 0.5  0.1 0.3 0.6  0.1 0.2 0.6  0 0.2 0.6  0 0.3 0.6  0.2 0.3 0.6  0.2 0.2 0.6  0.3 0.3 0.6  0.3 0.2 0.6  0.4 0.3 0.6  0.4 0.2 0.6  0.5 0.3 0.6  0.5 0.2 0.6  0.6 0.3 0.6  0.6 0.2 0.6  0.7 0.3 0.6  0.7 0.2 0.6  0.8 0.3 0.6  0.8 0.2 0.6  0.9 0.3 0.6  0.9 0.2 0.6  1 0.3 0.6  1 0.2 0.6  0.1 0.4 0.6  0 0.4 0.6  0.2 0.4 0.6  0.3 0.4 0.6  0.4 0.4 0.6  0.5 0.4 0.6  0.6 0.4 0.6  0.7 0.4 0.6  0.8 0.4 0.6  0.9 0.4 0.6  1 0.4 0.6  0.1 0.5 0.6  0 0.5 0.6  0.2 0.5 0.6  0.3 0.5 0.6  0.4 0.5 0.6  0.5 0.5 0.6  0.6 0.5 0.6  0.7 0.5 0.6  0.8 0.5 0.6  0.9 0.5 0.6  1 0.5 0.6  0.1 0.6 0.6  0 0.6 0.6  0.2 0.6 0.6  0.3 0.6 0.6  0.4 0.6 0.6  0.5 0.6 0.6  0.6 0.6 0.6  0.7 0.6 0.6  0.8 0.6 0.6  0.9 0.6 0.6  1 0.6 0.6  0.1 0.7 0.6  0 0.7 0.6  0.2 0.7 0.6  0.3 0.7 0.6  0.4 0.7 0.6  0.5 0.7 0.6  0.6 0.7 0.6  0.7 0.7 0.6  0.8 0.7 0.6  0.9 0.7 0.6  1 0.7 0.6  0.1 0.8 0.6  0 0.8 0.6  0.2 0.8 0.6  0.3 0.8 0.6  0.4 0.8 0.6  0.5 0.8 0.6  0.6 0.8 0.6  0.7 0.8 0.6  0.8 0.8 0.6  0.9 0.8 0.6  1 0.8 0.6  0.1 0.3 0.7  0.1 0.2 0.7  0 0.2 0.7  0 0.3 0.7  0.2 0.3 0.7  0.2 0.2 0.7  0.3 0.3 0.7  0.3 0.2 0.7  0.4 0.3 0.7  0.4 0.2 0.7  0.5 0.3 0.7  0.5 0.2 0.7  0.6 0.3 0.7  0.6 0.2 0.7  0.7 0.3 0.7  0.7 0.2 0.7  0.8 0.3 0.7  0.8 0.2 0.7  0.9 0.3 0.7  0.9 0.2 0.7  1 0.3 0.7  1 0.2 0.7  0.1 0.4 0.7  0 0.4 0.7  0.2 0.4 0.7  0.3 0.4 0.7  0.4 0.4 0.7  0.5 0.4 0.7  0.6 0.4 0.7  0.7 0.4 0.7  0.8 0.4 0.7  0.9 0.4 0.7  1 0.4 0.7  0.1 0.5 0.7  0 0.5 0.7  0.2 0.5 0.7  0.3 0.5 0.7  0.4 0.5 0.7  0.5 0.5 0.7  0.6 0.5 0.7  0.7 0.5 0.7  0.8 0.5 0.7  0.9 0.5 0.7  1 0.5 0.7  0.1 0.6 0.7  0 0.6 0.7  0.2 0.6 0.7  0.3 0.6 0.7  0.4 0.6 0.7  0.5 0.6 0.7  0.6 0.6 0.7  0.7 0.6 0.7  0.8 0.6 0.7  0.9 0.6 0.7  1 0.6 0.7  0.1 0.7 0.7  0 0.7 0.7  0.2 0.7 0.7  0.3 0.7 0.7  0.4 0.7 0.7  0.5 0.7 0.7  0.6 0.7 0.7  0.7 0.7 0.7  0.8 0.7 0.7  0.9 0.7 0.7  1 0.7 0.7  0.1 0.8 0.7  0 0.8 0.7  0.2 0.8 0.7  0.3 0.8 0.7  0.4 0.8 0.7  0.5 0.8 0.7  0.6 0.8 0.7  0.7 0.8 0.7  0.8 0.8 0.7  0.9 0.8 0.7  1 0.8 0.7  0.1 0.3 0.8  0.1 0.2 0.8  0 0.2 0.8  0 0.3 0.8  0.2 0.3 0.8  0.2 0.2 0.8  0.3 0.3 0.8  0.3 0.2 0.8  0.4 0.3 0.8  0.4 0.2 0.8  0.5 0.3 0.8  0.5 0.2 0.8  0.6 0.3 0.8  0.6 0.2 0.8  0.7 0.3 0.8  0.7 0.2 0.8  0.8 0.3 0.8  0.8 0.2 0.8  0.9 0.3 0.8  0.9 0.2 0.8  1 0.3 0.8  1 0.2 0.8  0.1 0.4 0.8  0 0.4 0.8  0.2 0.4 0.8  0.3 0.4 0.8  0.4 0.4 0.8  0.5 0.4 0.8  0.6 0.4 0.8  0.7 0.4 0.8  0.8 0.4 0.8  0.9 0.4 0.8  1 0.4 0.8  0.1 0.5 0.8  0 0.5 0.8  0.2 0.5 0.8  0.3 0.5 0.8  0.4 0.5 0.8  0.5 0.5 0.8  0.6 0.5 0.8  0.7 0.5 0.8  0.8 0.5 0.8  0.9 0.5 0.8  1 0.5 0.8  0.1 0.6 0.8  0 0.6 0.8  0.2 0.6 0.8  0.3 0.6 0.8  0.4 0.6 0.8  0.5 0.6 0.8  0.6 0.6 0.8  0.7 0.6 0.8  0.8 0.6 0.8  0.9 0.6 0.8  1 0.6 0.8  0.1 0.7 0.8  0 0.7 0.8  0.2 0.7 0.8  0.3 0.7 0.8  0.4 0.7 0.8  0.5 0.7 0.8  0.6 0.7 0.8  0.7 0.7 0.8  0.8 0.7 0.8  0.9 0.7 0.8  1 0.7 0.8  0.1 0.8 0.8  0 0.8 0.8  0.2 0.8 0.8  0.3 0.8 0.8  0.4 0.8 0.8  0.5 0.8 0.8  0.6 0.8 0.8  0.7 0.8 0.8  0.8 0.8 0.8  0.9 0.8 0.8  1 0.8 0.8  </DataArray>
</Points>
<Cells>
[...]
<PointData  Scalars="f_29"> 
<DataArray  type="Float64"  Name="f_29"  format="ascii">8.0000000000000000e+00  7.2041200350693781e+00  7.2040496947488357e+00  7.2040542592844048e+00  7.2040538591615864e+00  8.0000000000000000e+00  8.0000000000000000e+00  8.0000000000000000e+00  6.4079975953046393e+00  6.4079238899983428e+00  6.4078421760933839e+00  6.4078825894150837e+00  5.6121678930594623e+00  5.6121234248880674e+00  5.6119452175205122e+00  5.6119789868082428e+00  4.8165982902914521e+00  4.8166405843635687e+00  4.8163192868146938e+00  4.8163087344469284e+00  4.0210930700273035e+00  4.0213172976619376e+00  4.0207924630765843e+00  4.0206946053554411e+00  3.2251659328393987e+00  3.2257110319522115e+00  3.2249576106190547e+00  3.2247194254640918e+00  2.4277746247407448e+00  2.4287996232312308e+00  2.4279201990515289e+00  2.4274743326342145e+00  1.6269197440232324e+00  1.6284894804902781e+00  1.6278282277831173e+00  1.6270449735055172e+00  8.1923988495944389e-01  8.2082368484700485e-01  8.2088677007516531e-01  8.1952336686454708e-01  0.0000000000000000e+00  0.0000000000000000e+00  0.0000000000000000e+00  0.0000000000000000e+00  7.2038666962589666e+00  7.2038486997460671e+00  8.0000000000000000e+00  8.0000000000000000e+00  6.4078284734891087e+00  6.4077365919255413e+00  5.6121387215790524e+00  5.6119279209920858e+00  4.8168250055952981e+00  4.8164191761908057e+00  4.0217739141315789e+00  4.0210744341785727e+00  3.2265853286813186e+00  3.2255283113040143e+00  2.4302509287464096e+00  2.4289356216115130e+00  1.6305619539581304e+00  1.6294457930329660e+00  8.2295376461630587e-01  8.2285840435623714e-01  0.0000000000000000e+00  0.0000000000000000e+00  7.2037024135460719e+00  7.2036551773396562e+00  8.0000000000000000e+00  8.0000000000000000e+00  6.4077130200671837e+00  6.4075990057684997e+00  5.6121034986616944e+00  5.6118668547611010e+00  4.8168841393334869e+00  4.8164338370282191e+00  4.0219521189499261e+00  4.0211780672822188e+00  3.2269114297134132e+00  3.2257463789164005e+00  2.4307410241782423e+00  2.4292993927221440e+00  1.6311892877993397e+00  1.6299740014189814e+00  8.2355326445381172e-01  8.2345131418994089e-01  0.0000000000000000e+00  0.0000000000000000e+00  7.2035562206217403e+00  7.2034697853097516e+00  8.0000000000000000e+00  8.0000000000000000e+00  6.4075878157174584e+00  6.4074603012315299e+00  5.6119834490167397e+00  5.6117563389051446e+00  4.8167208516010955e+00  4.8163078994147837e+00  4.0216734464605413e+00  4.0209825701985560e+00  3.2264065235341381e+00  3.2253959539131904e+00  2.4298635635032633e+00  2.4286646865910426e+00  1.6298610040559018e+00  1.6289478405821196e+00  8.2213181138836222e-01  8.2229442391891583e-01  0.0000000000000000e+00  0.0000000000000000e+00  7.2035134703362438e+00  7.2033910473721710e+00  8.0000000000000000e+00  8.0000000000000000e+00  6.4075095882148574e+00  6.4073886422486215e+00  5.6118298241521920e+00  5.6116479759853632e+00  4.8164139864334841e+00  4.8161115612106773e+00  4.0210868614541937e+00  4.0206161015577289e+00  3.2253525676091050e+00  3.2247175768147578e+00  2.4281106532777024e+00  2.4274478899398639e+00  1.6272870828361388e+00  1.6269602993214112e+00  8.1938881555459053e-01  8.1993116552807832e-01  0.0000000000000000e+00  0.0000000000000000e+00  7.2035904740266892e+00  7.2035628722284617e+00  8.0000000000000000e+00  8.0000000000000000e+00  6.4074979297325765e+00  6.4073953378809048e+00  5.6117503315628285e+00  5.6116025546837252e+00  4.8162371200496255e+00  4.8160115335864742e+00  4.0207532070076448e+00  4.0204303990939811e+00  3.2247791973607729e+00  3.2243853147330492e+00  2.4272002502186680e+00  2.4268483638938982e+00  1.6259814536680972e+00  1.6258986075367148e+00  8.1797193927241152e-01  8.1837920720246304e-01  0.0000000000000000e+00  0.0000000000000000e+00  7.2037071485141162e+00  7.2037263857285510e+00  8.0000000000000000e+00  8.0000000000000000e+00  6.4073973044636015e+00  6.4074421773436185e+00  5.6113002277509247e+00  5.6113575567963281e+00  4.8154125529066327e+00  4.8154735743169432e+00  4.0196649455280644e+00  4.0197248514193209e+00  3.2238655003615917e+00  3.2239091966233691e+00  2.4274227256635843e+00  2.4273781548464317e+00  1.6285889449635773e+00  1.6281988805861460e+00  8.2277120845695551e-01  8.2138129136771731e-01  0.0000000000000000e+00  0.0000000000000000e+00  7.2036024759794941e+00  8.0000000000000000e+00  6.4072956635443852e+00  5.6112241610976428e+00  4.8153620069993881e+00  4.0196533907494754e+00  3.2239600919432796e+00  2.4278080888420810e+00  1.6295843231416844e+00  8.2447587318523863e-01  0.0000000000000000e+00  7.2034035398861649e+00  8.0000000000000000e+00  6.4071443917573481e+00  5.6111308992371676e+00  4.8153098817144455e+00  4.0196352635090111e+00  3.2239860223309207e+00  2.4279151278562372e+00  1.6298434070339904e+00  8.2490171014507363e-01  0.0000000000000000e+00  7.2032245133526178e+00  8.0000000000000000e+00  6.4070172595987298e+00  5.6110580528562339e+00  4.8152703670263630e+00  4.0196008905867258e+00  3.2238891229184081e+00  2.4276062009713955e+00  1.6291470747950609e+00  8.2394060817024106e-01  0.0000000000000000e+00  7.2031945116385803e+00  8.0000000000000000e+00  6.4069864762825794e+00  5.6110380124913997e+00  4.8152613547966912e+00  4.0195777711985148e+00  3.2237480152333680e+00  2.4270834687834699e+00  1.6278307375185099e+00  8.2185306245942835e-01  0.0000000000000000e+00  7.2033543594910787e+00  8.0000000000000000e+00  6.4070109320974105e+00  5.6110492972034196e+00  4.8152789371086042e+00  4.0195989728187280e+00  3.2237241147700857e+00  2.4268462656684240e+00  1.6270281018991337e+00  8.2026080973368154e-01  0.0000000000000000e+00  7.2033063934969128e+00  7.2033459227098433e+00  8.0000000000000000e+00  8.0000000000000000e+00  6.4068073993735792e+00  6.4068580728753872e+00  5.6104773026254309e+00  5.6105401543112849e+00  4.8143333592756603e+00  4.8144214419425930e+00  4.0184758235176119e+00  4.0186107758927472e+00  3.2230664406195837e+00  3.2232550827305992e+00  2.4279854299296195e+00  2.4281286403455695e+00  1.6315108479512188e+00  1.6312015419986179e+00  8.2747175242748527e-01  8.2559449576547028e-01  0.0000000000000000e+00  0.0000000000000000e+00  7.2031973106711344e+00  8.0000000000000000e+00  6.4066870955416642e+00  5.6103433220616585e+00  4.8141452406936107e+00  4.0181929679676767e+00  3.2227117263456608e+00  2.4277541380513816e+00  1.6318256614849549e+00  8.2864994278191417e-01  0.0000000000000000e+00  7.2030072869986466e+00  8.0000000000000000e+00  6.4065282221275561e+00  5.6102232062824067e+00  4.8140330174259134e+00  4.0180608794050769e+00  3.2225504616098664e+00  2.4275932713830519e+00  1.6317546697571657e+00  8.2875875222005180e-01  0.0000000000000000e+00  7.2028428512875093e+00  8.0000000000000000e+00  6.4064172909570711e+00  5.6101920073525440e+00  4.8140890304674340e+00  4.0182125056839428e+00  3.2227634094141120e+00  2.4277266533693109e+00  1.6315802777391377e+00  8.2825898593659586e-01  0.0000000000000000e+00  7.2028354041182920e+00  8.0000000000000000e+00  6.4064194308251556e+00  5.6102524987188831e+00  4.8142602356558077e+00  4.0185380081545965e+00  3.2231980346442644e+00  2.4280010512942516e+00  1.6312080124805266e+00  8.2689703445855844e-01  0.0000000000000000e+00  7.2029691883016849e+00  8.0000000000000000e+00  6.4064580860635560e+00  5.6103046461637049e+00  4.8143670206775253e+00  4.0187259262626620e+00  3.2234373150967492e+00  2.4280863559301733e+00  1.6306453187848997e+00  8.2516446729332449e-01  0.0000000000000000e+00  7.2029058437059694e+00  7.2029793416617585e+00  8.0000000000000000e+00  8.0000000000000000e+00  6.4062119410105511e+00  6.4062734424112424e+00  5.6096264860576843e+00  5.6096947992016890e+00  4.8132015986858123e+00  4.8133129699479049e+00  4.0172291797973081e+00  4.0174374695022621e+00  3.2223123606126163e+00  3.2226690379492080e+00  2.4292355585868490e+00  2.4296461989355427e+00  1.6372729257405654e+00  1.6370499851140616e+00  8.3704286515257298e-01  8.3396521116040623e-01  0.0000000000000000e+00  0.0000000000000000e+00  7.2027930913239633e+00  8.0000000000000000e+00  6.4060634258002978e+00  5.6094164661224619e+00  4.8128335783205616e+00  4.0165644314837845e+00  3.2212413134290849e+00  2.4278543254764609e+00  1.6360330996407730e+00  8.3627254852194621e-01  0.0000000000000000e+00  7.2026106431485575e+00  8.0000000000000000e+00  6.4058944065832870e+00  5.6092641364900944e+00  4.8126460306649506e+00  4.0162762996942769e+00  3.2207936037631284e+00  2.4272220281692469e+00  1.6352480454936014e+00  8.3547492238714172e-01  0.0000000000000000e+00  7.2024351688983588e+00  8.0000000000000000e+00  6.4057947462710869e+00  5.6092841500023862e+00  4.8128250312115197e+00  4.0166836642296211e+00  3.2214889656080614e+00  2.4281334343539296e+00  1.6360763989798959e+00  8.3616139849668725e-01  0.0000000000000000e+00  7.2024005725456481e+00  8.0000000000000000e+00  6.4058167207119103e+00  5.6094403502269072e+00  4.8132336273196792e+00  4.0175166124892021e+00  3.2229058162299178e+00  2.4300254345002101e+00  1.6378283606308828e+00  8.3752049338631607e-01  0.0000000000000000e+00  7.2025222108183282e+00  8.0000000000000000e+00  6.4058668956286056e+00  5.6095424065761446e+00  4.8134658569014794e+00  4.0179741904406230e+00  3.2236674163649330e+00  2.4309893329839314e+00  1.6383978812625983e+00  8.3702266642400114e-01  0.0000000000000000e+00  7.2026595472891008e+00  7.2027766499022112e+00  8.0000000000000000e+00  8.0000000000000000e+00  6.4057842510740315e+00  6.4058741923946858e+00  5.6089408250221542e+00  5.6090635528964929e+00  4.8122206101682892e+00  4.8124560607814777e+00  4.0161006359980940e+00  4.0165825649831968e+00  3.2217902017979121e+00  3.2227408863920144e+00  2.4316613458549132e+00  2.4333430888878902e+00  1.6487801007412757e+00  1.6512642146676737e+00  8.6863660426149181e-01  8.7281632243826901e-01  0.0000000000000000e+00  0.0000000000000000e+00  7.2025710798691032e+00  8.0000000000000000e+00  6.4055990525661537e+00  5.6086222688540674e+00  4.8116014514834990e+00  4.0148877079937524e+00  3.2195734015183559e+00  2.4280658826053174e+00  1.6438646514734530e+00  8.6298467546621516e-01  0.0000000000000000e+00  7.2023985013485170e+00  8.0000000000000000e+00  6.4054181786599003e+00  5.6084283393702483e+00  4.8113132225888258e+00  4.0143768888798528e+00  3.2186686956092529e+00  2.4265854479578670e+00  1.6416936663002384e+00  8.6030800889150982e-01  0.0000000000000000e+00  7.2021957043122402e+00  8.0000000000000000e+00  6.4053292146604299e+00  5.6085072973746453e+00  4.8116292116568617e+00  4.0150615406104890e+00  3.2198905618291742e+00  2.4284180802911433e+00  1.6437946793045568e+00  8.6165639285755447e-01  0.0000000000000000e+00  7.2020474843806168e+00  8.0000000000000000e+00  6.4053507194528834e+00  5.6087793494028562e+00  4.8123396182765878e+00  4.0165545558835509e+00  3.2226594984531225e+00  2.4328898206041147e+00  1.6494448656084708e+00  8.6523422913057468e-01  0.0000000000000000e+00  7.2020570818654566e+00  8.0000000000000000e+00  6.4053878463213172e+00  5.6089519907833285e+00  4.8127696648461011e+00  4.0174768670290097e+00  3.2244558084619901e+00  2.4360316132522066e+00  1.6539448061027955e+00  8.6845493954768971e-01  0.0000000000000000e+00  7.2027799345870482e+00  7.2028092077383539e+00  8.0000000000000000e+00  8.0000000000000000e+00  6.4056895875613620e+00  6.4057882580463996e+00  5.6087487602095711e+00  5.6089025762020936e+00  4.8119680671403131e+00  4.8122600897573440e+00  4.0159785471015343e+00  4.0165387368564387e+00  3.2227445343498271e+00  3.2237128998796076e+00  2.4379168193524627e+00  2.4391691214616089e+00  1.6780646858807036e+00  1.6780767253875115e+00  9.9479167720647599e-01  9.8655870065397433e-01  6.0894785400472318e-01  5.7907230207223925e-01  7.2026636275244931e+00  8.0000000000000000e+00  6.4054774556255447e+00  5.6083809038910877e+00  4.8112414682387259e+00  4.0145357648709838e+00  3.2200518765819202e+00  2.4333890427009988e+00  1.6717941014914595e+00  9.9008118840821790e-01  6.1303369454899526e-01  7.2024578362627150e+00  8.0000000000000000e+00  6.4052873684967953e+00  5.6081654827799596e+00  4.8109010636601006e+00  4.0139069357070190e+00  3.2188944339253287e+00  2.4314072359839423e+00  1.6687813330825283e+00  9.8625522926246934e-01  6.0888846514199335e-01  7.2022431453798683e+00  8.0000000000000000e+00  6.4052026894303831e+00  5.6082636269578758e+00  4.8112569612528437e+00  4.0146620133814075e+00  3.2202285050032242e+00  2.4333844392903830e+00  1.6709647846321265e+00  9.8719856515058546e-01  6.0681689399504635e-01  7.2019842753152510e+00  8.0000000000000000e+00  6.4052066712634081e+00  5.6085817938140039e+00  4.8120868558355161e+00  4.0164030327572187e+00  3.2234729122909069e+00  2.4386533191670190e+00  1.6776658686533441e+00  9.9133101139677149e-01  6.0038154549841560e-01  7.2015639416783932e+00  8.0000000000000000e+00  6.4051877173179692e+00  5.6087949118127298e+00  4.8126637795192355e+00  4.0177215310377932e+00  3.2262799222948648e+00  2.4442546818087103e+00  1.6877073802096969e+00  1.0045497420055687e+00  5.7318079835082270e-01  </DataArray> 
</PointData> 
</Piece>
</UnstructuredGrid>
</VTKFile>