<?xml version="1.0"?>
<VTKFile type="UnstructuredGrid"  version="0.1"  >
<UnstructuredGrid>
<Piece  NumberOfPoints="539" NumberOfCells="2160">
<Points>
<DataArray  type="Float64"  NumberOfComponents="3"  format="ascii">0 0.2 0.2  0.1 0.2 0.2  0.1 0.3 0.2  0.1 0.3 0.3  0.1 0.2 0.3  0 0.2 0.3  0 0.3 0.2  0 0.3 0.3  0.2 0.2 0.2  0.2 0.3 0.2  0.2 0.3 0.3  0.2 0.2 0.3  0.3 0.2 0.2  0.3 0.3 0.2  0.3 0.3 0.3  0.3 0.2 0.3  0.4 0.2 0.2  0.4 0.3 0.2  0.4 0.3 0.3  0.4 0.2 0.3  0.5 0.2 0.2  0.5 0.3 0.2  0.5 0.3 0.3  0.5 0.2 0.3  0.6 0.2 0.2  0.6 0.3 0.2  0.6 0.3 0.3  0.6 0.2 0.3  0.7 0.2 0.2  0.7 0.3 0.2  0.7 0.3 0.3  0.7 0.2 0.3  0.8 0.2 0.2  0.8 0.3 0.2  0.8 0.3 0.3  0.8 0.2 0.3  0.9 0.2 0.2  0.9 0.3 0.2  0.9 0.3 0.3  0.9 0.2 0.3  1 0.2 0.2  1 0.3 0.2  1 0.3 0.3  1 0.2 0.3  0.1 0.4 0.2  0.1 0.4 0.3  0 0.4 0.2  0 0.4 0.3  0.2 0.4 0.2  0.2 0.4 0.3  0.3 0.4 0.2  0.3 0.4 0.3  0.4 0.4 0.2  0.4 0.4 0.3  0.5 0.4 0.2  0.5 0.4 0.3  0.6 0.4 0.2  0.6 0.4 0.3  0.7 0.4 0.2  0.7 0.4 0.3  0.8 0.4 0.2  0.8 0.4 0.3  0.9 0.4 0.2  0.9 0.4 0.3  1 0.4 0.2  1 0.4 0.3  0.1 0.5 0.2  0.1 0.5 0.3  0 0.5 0.2  0 0.5 0.3  0.2 0.5 0.2  0.2 0.5 0.3  0.3 0.5 0.2  0.3 0.5 0.3  0.4 0.5 0.2  0.4 0.5 0.3  0.5 0.5 0.2  0.5 0.5 0.3  0.6 0.5 0.2  0.6 0.5 0.3  0.7 0.5 0.2  0.7 0.5 0.3  0.8 0.5 0.2  0.8 0.5 0.3  0.9 0.5 0.2  0.9 0.5 0.3  1 0.5 0.2  1 0.5 0.3  0.1 0.6 0.2  0.1 0.6 0.3  0 0.6 0.2  0 0.6 0.3  0.2 0.6 0.2  0.2 0.6 0.3  0.3 0.6 0.2  0.3 0.6 0.3  0.4 0.6 0.2  0.4 0.6 0.3  0.5 0.6 0.2  0.5 0.6 0.3  0.6 0.6 0.2  0.6 0.6 0.3  0.7 0.6 0.2  0.7 0.6 0.3  0.8 0.6 0.2  0.8 0.6 0.3  0.9 0.6 0.2  0.9 0.6 0.3  1 0.6 0.2  1 0.6 0.3  0.1 0.7 0.2  0.1 0.7 0.3  0 0.7 0.2  0 0.7 0.3  0.2 0.7 0.2  0.2 0.7 0.3  0.3 0.7 0.2  0.3 0.7 0.3  0.4 0.7 0.2  0.4 0.7 0.3  0.5 0.7 0.2  0.5 0.7 0.3  0.6 0.7 0.2  0.6 0.7 0.3  0.7 0.7 0.2  0.7 0.7 0.3  0.8 0.7 0.2  0.8 0.7 0.3  0.9 0.7 0.2  0.9 0.7 0.3  1 0.7 0.2  1 0.7 0.3  0.1 0.8 0.2  0.1 0.8 0.3  0 0.8 0.2  0 0.8 0.3  0.2 0.8 0.2  0.2 0.8 0.3  0.3 0.8 0.2  0.3 0.8 0.3  0.4 0.8 0.2  0.4 0.8 0.3  0.5 0.8 0.2  0.5 0.8 0.3  0.6 0.8 0.2  0.6 0.8 0.3  0.7 0.8 0.2  0.7 0.8 0.3  0.8 0.8 0.2  0.8 0.8 0.3  0.9 0.8 0.2  0.9 0.8 0.3  1 0.8 0.2  1 0.8 0.3  0.1 0.3 0.4  0.1 0.2 0.4  0 0.2 0.4  0 0.3 0.4  0.2 0.3 0.4  0.2 0.2 0.4  0.3 0.3 0.4  0.3 0.2 0.4  0.4 0.3 0.4  0.4 0.2 0.4  0.5 0.3 0.4  0.5 0.2 0.4  0.6 0.3 0.4  0.6 0.2 0.4  0.7 0.3 0.4  0.7 0.2 0.4  0.8 0.3 0.4  0.8 0.2 0.4  0.9 0.3 0.4  0.9 0.2 0.4  1 0.3 0.4  1 0.2 0.4  0.1 0.4 0.4  0 0.4 0.4  0.2 0.4 0.4  0.3 0.4 0.4  0.4 0.4 0.4  0.5 0.4 0.4  0.6 0.4 0.4  0.7 0.4 0.4  0.8 0.4 0.4  0.9 0.4 0.4  1 0.4 0.4  0.1 0.5 0.4  0 0.5 0.4  0.2 0.5 0.4  0.3 0.5 0.4  0.4 0.5 0.4  0.5 0.5 0.4  0.6 0.5 0.4  0.7 0.5 0.4  0.8 0.5 0.4  0.9 0.5 0.4  1 0.5 0.4  0.1 0.6 0.4  0 0.6 0.4  0.2 0.6 0.4  0.3 0.6 0.4  0.4 0.6 0.4  0.5 0.6 0.4  0.6 0.6 0.4  0.7 0.6 0.4  0.8 0.6 0.4  0.9 0.6 0.4  1 0.6 0.4  0.1 0.7 0.4  0 0.7 0.4  0.2 0.7 0.4  0.3 0.7 0.4  0.4 0.7 0.4  0.5 0.7 0.4  0.6 0.7 0.4  0.7 0.7 0.4  0.8 0.7 0.4  0.9 0.7 0.4  1 0.7 0.4  0.1 0.8 0.4  0 0.8 0.4  0.2 0.8 0.4  0.3 0.8 0.4  0.4 0.8 0.4  0.5 0.8 0.4  0.6 0.8 0.4  0.7 0.8 0.4  0.8 0.8 0.4  0.9 0.8 0.4  1 0.8 0.4  0.1 0.3 0.5  0.1 0.2 0.5  0 0.2 0.5  0 0.3 0.5  0.2 0.3 0.5  0.2 0.2 0.5  0.3 0.3 0.5  0.3 0.2 0.5  0.4 0.3 0.5  0.4 0.2 0.5  0.5 0.3 0.5  0.5 0.2 0.5  0.6 0.3 0.5  0.6 0.2 0.5  0.7 0.3 0.5  0.7 0.2 0.5  0.8 0.3 0.5  0.8 0.2 0.5  0.9 0.3 0.5  0.9 0.2 0.5  1 0.3 0.5  1 0.2 0.5  0.1 0.4 0.5  0 0.4 0.5  0.2 0.4 0.5  0.3 0.4 0.5  0.4 0.4 0.5  0.5 0.4 0.5  0.6 0.4 0.5  0.7 0.4 0.5  0.8 0.4 0.5  0.9 0.4 0.5  1 0.4 0.5  0.1 0.5 0.5  0 0.5 0.5  0.2 0.5 0.5  0.3 0.5 0.5  0.4 0.5 0.5  0.5 0.5 0.5  0.6 0.5 0.5  0.7 0.5 0.5  0.8 0.5 0.5  0.9 0.5 0.5  1 0.5 0.5  0.1 0.6 0.5  0 0.6 0.5  0.2 0.6 0.5  0.3 0.6 0.5  0.4 0.6 0.5  0.5 0.6 0.5  0.6 0.6 0.5  0.7 0.6 0.5  0.8 0.6 0.5  0.9 0.6 0.5  1 0.6 0.5  0.1 0.7 0.5  0 0.7 0.5  0.2 0.7 0.5  0.3 0.7 0.5  0.4 0.7 0.5  0.5 0.7 0.5  0.6 0.7 0.5  0.7 0.7 0.5  0.8 0.7 0.5  0.9 0.7 0.5  1 0.7 0.5  0.1 0.8 0.5  0 0.8 0.5  0.2 0.8 0.5  0.3 0.8 0.5  0.4 0.8 0.5  0.5 0.8 0.5  0.6 0.8 0.5  0.7 0.8 0.5  0.8 0.8 0.5  0.9 0.8 0.5  1 0.8 0.5  0.1 0.3 0.6  0.1 0.2 0.6  0 0.2 0.6  0 0.3 0.6  0.2 0.3 0.6  0.2 0.2 0.6  0.3 0.3 0.6  0.3 0.2 0.6  0.4 0.3 0.6  0.4 0.2 0.6  0.5 0.3 0.6  0.5 0.2 0.6  0.6 0.3 0.6  0.6 0.2 0.6  0.7 0.3 0.6  0.7 0.2 0.6  0.8 0.3 0.6  0.8 0.2 0.6  0.9 0.3 0.6  0.9 0.2 0.6  1 0.3 0.6  1 0.2 0.6  0.1 0.4 0.6  0 0.4 0.6  0.2 0.4 0.6  0.3 0.4 0.6  0.4 0.4 0.6  0.5 0.4 0.6  0.6 0.4 0.6  0.7 0.4 0.6  0.8 0.4 0.6  0.9 0.4 0.6  1 0.4 0.6  0.1 0.5 0.6  0 0.5 0.6  0.2 0.5 0.6  0.3 0.5 0.6  0.4 0.5 0.6  0.5 0.5 0.6  0.6 0.5 0.6  0.7 0.5 0.6  0.8 0.5 0.6  0.9 0.5 0.6  1 0.5 0.6  0.1 0.6 0.6  0 0.6 0.6  0.2 0.6 0.6  0.3 0.6 0.6  0.4 0.6 0.6  0.5 0.6 0.6  0.6 0.6 0.6  0.7 0.6 0.6  0.8 0.6 0.6  0.9 0.6 0.6  1 0.6 0.6  0.1 0.7 0.6  0 0.7 0.6  0.2 0.7 0.6  0.3 0.7 0.6  0.4 0.7 0.6  0.5 0.7 0.6  0.6 0.7 0.6  0.7 0.7 0.6  0.8 0.7 0.6  0.9 0.7 0.6  1 0.7 0.6  0.1 0.8 0.6  0 0.8 0.6  0.2 0.8 0.6  0.3 0.8 0.6  0.4 0.8 0.6  0.5 0.8 0.6  0.6 0.8 0.6  0.7 0.8 0.6  0.8 0.8 0.6  0.9 0.8 0.6  1 0.8 0.6  0.1 0.3 0.7  0.1 0.2 0.7  0 0.2 0.7  0 0.3 0.7  0.2 0.3 0.7  0.2 0.2 0.7  0.3 0.3 0.7  0.3 0.2 0.7  0.4 0.3 0.7  0.4 0.2 0.7  0.5 0.3 0.7  0.5 0.2 0.7  0.6 0.3 0.7  0.6 0.2 0.7  0.7 0.3 0.7  0.7 0.2 0.7  0.8 0.3 0.7  0.8 0.2 0.7  0.9 0.3 0.7  0.9 0.2 0.7  1 0.3 0.7  1 0.2 0.7  0.1 0.4 0.7  0 0.4 0.7  0.2 0.4 0.7  0.3 0.4 0.7  0.4 0.4 0.7  0.5 0.4 0.7  0.6 0.4 0.7  0.7 0.4 0.7  0.8 0.4 0.7  0.9 0.4 0.7  1 0.4 0.7  0.1 0.5 0.7  0 0.5 0.7  0.2 0.5 0.7  0.3 0.5 0.7  0.4 0.5 0.7  0.5 0.5 0.7  0.6 0.5 0.7  0.7 0.5 0.7  0.8 0.5 0.7  0.9 0.5 0.7  1 0.5 0.7  0.1 0.6 0.7  0 0.6 0.7  0.2 0.6 0.7  0.3 0.6 0.7  0.4 0.6 0.7  0.5 0.6 0.7  0.6 0.6 0.7  0.7 0.6 0.7  0.8 0.6 0.7  0.9 0.6 0.7  1 0.6 0.7  0.1 0.7 0.7  0 0.7 0.7  0.2 0.7 0.7  0.3 0.7 0.7  0.4 0.7 0.7  0.5 0.7 0.7  0.6 0.7 0.7  0.7 0.7 0.7  0.8 0.7 0.7  0.9 0.7 0.7  1 0.7 0.7  0.1 0.8 0.7  0 0.8 0.7  0.2 0.8 0.7  0.3 0.8 0.7  0.4 0.8 0.7  0.5 0.8 0.7  0.6 0.8 0.7  0.7 0.8 0.7  0.8 0.8 0.7  0.9 0.8 0.7  1 0.8 0.7  0.1 0.3 0.8  0.1 0.2 0.8  0 0.2 0.8  0 0.3 0.8  0.2 0.3 0.8  0.2 0.2 0.8  0.3 0.3 0.8  0.3 0.2 0.8  0.4 0.3 0.8  0.4 0.2 0.8  0.5 0.3 0.8  0.5 0.2 0.8  0.6 0.3 0.8  0.6 0.2 0.8  0.7 0.3 0.8  0.7 0.2 0.8  0.8 0.3 0.8  0.8 0.2 0.8  0.9 0.3 0.8  0.9 0.2 0.8  1 0.3 0.8  1 0.2 0.8  0.1 0.4 0.8  0 0.4 0.8  0.2 0.4 0.8  0.3 0.4 0.8  0.4 0.4 0.8  0.5 0.4 0.8  0.6 0.4 0.8  0.7 0.4 0.8  0.8 0.4 0.8  0.9 0.4 0.8  1 0.4 0.8  0.1 0.5 0.8  0 0.5 0.8  0.2 0.5 0.8  0.3 0.5 0.8  0.4 0.5 0.8  0.5 0.5 0.8  0.6 0.5 0.8  0.7 0.5 0.8  0.8 0.5 0.8  0.9 0.5 0.8  1 0.5 0.8  0.1 0.6 0.8  0 0.6 0.8  0.2 0.6 0.8  0.3 0.6 0.8  0.4 0.6 0.8  0.5 0.6 0.8  0.6 0.6 0.8  0.7 0.6 0.8  0.8 0.6 0.8  0.9 0.6 0.8  1 0.6 0.8  0.1 0.7 0.8  0 0.7 0.8  0.2 0.7 0.8  0.3 0.7 0.8  0.4 0.7 0.8  0.5 0.7 0.8  0.6 0.7 0.8  0.7 0.7 0.8  0.8 0.7 0.8  0.9 0.7 0.8  1 0.7 0.8  0.1 0.8 0.8  0 0.8 0.8  0.2 0.8 0.8  0.3 0.8 0.8  0.4 0.8 0.8  0.5 0.8 0.8  0.6 0.8 0.8  0.7 0.8 0.8  0.8 0.8 0.8  0.9 0.8 0.8  1 0.8 0.8  </DataArray>
</Points>
<Cells>
[...]
<PointData  Scalars="f_29"> 
<DataArray  type="Float64"  Name="f_29"  format="ascii">8.0000000000000000e+00  7.2047695221253614e+00  7.2047568363098247e+00  7.2047458473948893e+00  7.2046926396807836e+00  8.0000000000000000e+00  8.0000000000000000e+00  8.0000000000000000e+00  6.4092852069371808e+00  6.4093037249396536e+00  6.4092050097129638e+00  6.4091499865676758e+00  5.6140248765788865e+00  5.6141016220942035e+00  5.6139017063982566e+00  5.6138042776981507e+00  4.8189253356640718e+00  4.8191116393552704e+00  4.8187663452929446e+00  4.8185938583593639e+00  4.0237430966654610e+00  4.0241217783923888e+00  4.0235823718646353e+00  4.0233052925552704e+00  3.2279157077434633e+00  3.2286073879547432e+00  3.2278713876853504e+00  3.2274613355785249e+00  2.4302940765098415e+00  2.4314384084081500e+00  2.4306323626126458e+00  2.4300477564025429e+00  1.6287846217574256e+00  1.6304317913633224e+00  1.6298936527764425e+00  1.6290176558237928e+00  8.2008331136442669e-01  8.2171208563188414e-01  8.2186532485739383e-01  8.2047585478030405e-01  0.0000000000000000e+00  0.0000000000000000e+00  0.0000000000000000e+00  0.0000000000000000e+00  7.2046251542554769e+00  7.2045943805833605e+00  8.0000000000000000e+00  8.0000000000000000e+00  6.4092846335582445e+00  6.4091776487204770e+00  5.6142171167698391e+00  5.6139895876676427e+00  4.8194161085190848e+00  4.8189966814507041e+00  4.0247097388358020e+00  4.0240129585009212e+00  3.2296106783054408e+00  3.2285951059937856e+00  2.4329979721140913e+00  2.4317848880640063e+00  1.6325710443498183e+00  1.6316064022561547e+00  8.2386017850257143e-01  8.2386579046092501e-01  0.0000000000000000e+00  0.0000000000000000e+00  7.2044931280539473e+00  7.2044356415848281e+00  8.0000000000000000e+00  8.0000000000000000e+00  6.4092183035506887e+00  6.4090905163488827e+00  5.6142455388291026e+00  5.6139939892886819e+00  4.8195496211744624e+00  4.8190897613367563e+00  4.0249660350741747e+00  4.0242018056514377e+00  3.2300093529585459e+00  3.2288957263809870e+00  2.4335465123970281e+00  2.4322185053519885e+00  1.6332381084699303e+00  1.6321844905952450e+00  8.2448177135977063e-01  8.2448549093031254e-01  0.0000000000000000e+00  0.0000000000000000e+00  7.2043619776157550e+00  7.2042701636205031e+00  8.0000000000000000e+00  8.0000000000000000e+00  6.4091138965203012e+00  6.4089753395036801e+00  5.6141511835257374e+00  5.6139113518099215e+00  4.8194131455354476e+00  4.8189933804041090e+00  4.0247091735620053e+00  4.0240307903938826e+00  3.2295165185361241e+00  3.2285573314225537e+00  2.4326745380642940e+00  2.4315830733145121e+00  1.6319244101372183e+00  1.6311598525294821e+00  8.2309745570033455e-01  8.2335173787288185e-01  0.0000000000000000e+00  0.0000000000000000e+00  7.2043140631751719e+00  7.2041936470659724e+00  8.0000000000000000e+00  8.0000000000000000e+00  6.4090325503698082e+00  6.4089048169933411e+00  5.6139964769842443e+00  5.6138050647080542e+00  4.8191029196713338e+00  4.8187964991134828e+00  4.0241116117449724e+00  4.0236539488107441e+00  3.2284423769658974e+00  3.2278516745164980e+00  2.4309019874689017e+00  2.4303248505660346e+00  1.6293574550667094e+00  1.6291428716763769e+00  8.2040379049168644e-01  8.2100771543562190e-01  0.0000000000000000e+00  0.0000000000000000e+00  7.2043733091652147e+00  7.2043451065354853e+00  8.0000000000000000e+00  8.0000000000000000e+00  6.4090112038584071e+00  6.4089055168416857e+00  5.6139181624983809e+00  5.6137598872974710e+00  4.8189348549544331e+00  4.8187011900078520e+00  4.0237900655728405e+00  4.0234729093899331e+00  3.2278823836690460e+00  3.2275179934571190e+00  2.4300101168624919e+00  2.4297157050839622e+00  1.6280876099014736e+00  1.6280763247881858e+00  8.1903899551384662e-01  8.1948867240696455e-01  0.0000000000000000e+00  0.0000000000000000e+00  7.2043983890517449e+00  7.2043643396297607e+00  8.0000000000000000e+00  8.0000000000000000e+00  6.4087463334033936e+00  6.4086938003367866e+00  5.6132445764272552e+00  5.6131596938626025e+00  4.8178673423022937e+00  4.8177361905433367e+00  4.0225114567255993e+00  4.0223312190061753e+00  3.2269231844176054e+00  3.2267021522797363e+00  2.4303882004543671e+00  2.4301049127587864e+00  1.6309625571035489e+00  1.6304127700443309e+00  8.2394910432000523e-01  8.2252251850331304e-01  0.0000000000000000e+00  0.0000000000000000e+00  7.2043332975308063e+00  8.0000000000000000e+00  6.4087152973961157e+00  5.6132700602780901e+00  4.8179516155569768e+00  4.0226677875537087e+00  3.2272093741151924e+00  2.4309612988130773e+00  1.6320912649019945e+00  8.2568074857294593e-01  0.0000000000000000e+00  7.2041680345409675e+00  8.0000000000000000e+00  6.4086135490141345e+00  5.6132430825285269e+00  4.8179826822277345e+00  4.0227459220530370e+00  3.2273358808903114e+00  2.4311601991631511e+00  1.6324181096424570e+00  8.2613679648776217e-01  0.0000000000000000e+00  7.2040122895190626e+00  8.0000000000000000e+00  6.4085165892452327e+00  5.6132079477723318e+00  4.8179857326377631e+00  4.0227503600642862e+00  3.2272622176795882e+00  2.4308547735988077e+00  1.6317236827845347e+00  8.2520320034122530e-01  0.0000000000000000e+00  7.2039880613418976e+00  8.0000000000000000e+00  6.4084977861930010e+00  5.6132049439555933e+00  4.8179936454196843e+00  4.0227327010129903e+00  3.2271001268113979e+00  2.4302813907806762e+00  1.6303624936514929e+00  8.2313876319742285e-01  0.0000000000000000e+00  7.2041351281782129e+00  8.0000000000000000e+00  6.4085250373320246e+00  5.6132244397512245e+00  4.8180224207996973e+00  4.0227617759462149e+00  3.2270704215269719e+00  2.4300185393904523e+00  1.6295332236126976e+00  8.2157543869486949e-01  0.0000000000000000e+00  7.2040001405816954e+00  7.2039895288418414e+00  8.0000000000000000e+00  8.0000000000000000e+00  6.4081567392336698e+00  6.4081149834773381e+00  5.6124378679646911e+00  5.6123593380371481e+00  4.8168475238206234e+00  4.8167271931408413e+00  4.0214634858144072e+00  4.0213001562828241e+00  3.2263968361923405e+00  3.2261899864289227e+00  2.4313931066889576e+00  2.4310995468605872e+00  1.6344289829245164e+00  1.6337909767199490e+00  8.2902423604435738e-01  8.2706413616794838e-01  0.0000000000000000e+00  0.0000000000000000e+00  7.2039235969477611e+00  8.0000000000000000e+00  6.4080966865448881e+00  5.6123949364794523e+00  4.8167901025627717e+00  4.0213635915148487e+00  3.2262841706523910e+00  2.4314370745529672e+00  1.6349611414776359e+00  8.3024900424358383e-01  0.0000000000000000e+00  7.2037639081185594e+00  8.0000000000000000e+00  6.4079840769199166e+00  5.6123387144420613e+00  4.8167623040780700e+00  4.0213370289994437e+00  3.2262445268011883e+00  2.4313990292373631e+00  1.6349887308741877e+00  8.3040071903701795e-01  0.0000000000000000e+00  7.2036258602674206e+00  8.0000000000000000e+00  6.4079106027424766e+00  5.6123564025842185e+00  4.8168762974914587e+00  4.0215457746556229e+00  3.2264962893538218e+00  2.4315406749440278e+00  1.6348145300053376e+00  8.2993491946378095e-01  0.0000000000000000e+00  7.2036308887935565e+00  8.0000000000000000e+00  6.4079380420312919e+00  5.6124528737710744e+00  4.8170882337669951e+00  4.0219015488362064e+00  3.2269259683128380e+00  2.4317604218228621e+00  1.6343847115915948e+00  8.2861100612077221e-01  0.0000000000000000e+00  7.2037598952726443e+00  8.0000000000000000e+00  6.4079874508141055e+00  5.6125227657817787e+00  4.8172166614372403e+00  4.0221067976509239e+00  3.2271633424876249e+00  2.4318128468026061e+00  1.6337827254819499e+00  8.2692367214988527e-01  0.0000000000000000e+00  7.2036096230069901e+00  7.2036378833948245e+00  8.0000000000000000e+00  8.0000000000000000e+00  6.4075791447366308e+00  6.4075606227211193e+00  5.6116380249833959e+00  5.6115816758472370e+00  4.8158385882618600e+00  4.8157540438841702e+00  4.0204683977828184e+00  4.0203599406516739e+00  3.2261019140727729e+00  3.2259465603082611e+00  2.4334075485944857e+00  2.4330686825369856e+00  1.6412957710589566e+00  1.6402672997223133e+00  8.3954170654226368e-01  8.3608768940743394e-01  0.0000000000000000e+00  0.0000000000000000e+00  7.2035210187313332e+00  8.0000000000000000e+00  6.4074775902368124e+00  5.6115024139977869e+00  4.8155872420313601e+00  4.0199922524230054e+00  3.2253349524865187e+00  2.4324696417300666e+00  1.6405438229753597e+00  8.3903374990913959e-01  0.0000000000000000e+00  7.2033650130986500e+00  8.0000000000000000e+00  6.4073496265174681e+00  5.6114077367070125e+00  4.8154796395035158e+00  4.0198137989778937e+00  3.2250331755718573e+00  2.4320146056746985e+00  1.6399341130166192e+00  8.3835196841979731e-01  0.0000000000000000e+00  7.2032207579024092e+00  8.0000000000000000e+00  6.4072935255985062e+00  5.6114841230961234e+00  4.8157259352792305e+00  4.0202880356032660e+00  3.2257701962518510e+00  2.4329104027208386e+00  1.6406903425536636e+00  8.3901345562744389e-01  0.0000000000000000e+00  7.2032091595590053e+00  8.0000000000000000e+00  6.4073538694151146e+00  5.6116923987394589e+00  4.8161938449111465e+00  4.0211668254469917e+00  3.2271773702073738e+00  2.4346852833538448e+00  1.6422281687212823e+00  8.4028051281888616e-01  0.0000000000000000e+00  7.2033319769529180e+00  8.0000000000000000e+00  6.4074217275241665e+00  5.6118204267875118e+00  4.8164563696726024e+00  4.0216472272734229e+00  3.2279295122748790e+00  2.4355767819283671e+00  1.6426744979452845e+00  8.3977861083886629e-01  0.0000000000000000e+00  7.2033720344803180e+00  7.2034489914528796e+00  8.0000000000000000e+00  8.0000000000000000e+00  6.4071762129462808e+00  6.4072020923252087e+00  5.6110198304922045e+00  5.6110437741201409e+00  4.8150109649185806e+00  4.8150840968424831e+00  4.0196544099549101e+00  4.0198476901946121e+00  3.2261852280040482e+00  3.2265814985244061e+00  2.4369500117778444e+00  2.4375472298421497e+00  1.6548142789483633e+00  1.6554597346594671e+00  8.7440183184320885e-01  8.7664153180549254e-01  0.0000000000000000e+00  0.0000000000000000e+00  7.2032976493925149e+00  8.0000000000000000e+00  6.4070252839152984e+00  5.6107587633822034e+00  4.8144915313042365e+00  4.0186290225235339e+00  3.2243351084518861e+00  2.4340429920424533e+00  1.6509923044573629e+00  8.6987755865395655e-01  0.0000000000000000e+00  7.2031476056258628e+00  8.0000000000000000e+00  6.4068795809389965e+00  5.6106140359246153e+00  4.8142742633843500e+00  4.0182256516465715e+00  3.2235992319716575e+00  2.4328227157931290e+00  1.6491701605308631e+00  8.6752169557098024e-01  0.0000000000000000e+00  7.2029810057549142e+00  8.0000000000000000e+00  6.4068368879528830e+00  5.6107496094490239e+00  4.8146546249122615e+00  4.0189684822209308e+00  3.2248403982231149e+00  2.4345812073813202e+00  1.6510510614624023e+00  8.6856257706192741e-01  0.0000000000000000e+00  7.2028723182244212e+00  8.0000000000000000e+00  6.4069076627818928e+00  5.6110817249811893e+00  4.8154281716495575e+00  4.0204982134000646e+00  3.2275510169715829e+00  2.4387784158545580e+00  1.6560712044453749e+00  8.7122889482751831e-01  0.0000000000000000e+00  7.2028973917593788e+00  8.0000000000000000e+00  6.4069703827717133e+00  5.6112859472298631e+00  4.8158919040049444e+00  4.0214380296945302e+00  3.2293017510407171e+00  2.4417174529981724e+00  1.6600713251386974e+00  8.7359359778531709e-01  0.0000000000000000e+00  7.2034806712960018e+00  7.2034826334540805e+00  8.0000000000000000e+00  8.0000000000000000e+00  6.4070976815593799e+00  6.4071440493134446e+00  5.6108730244304788e+00  5.6109519017637401e+00  4.8148515237053040e+00  4.8150191734916366e+00  4.0197095473301783e+00  4.0200408560326073e+00  3.2274720905171193e+00  3.2279742910196627e+00  2.4438209951444794e+00  2.4439707879034707e+00  1.6852746733264161e+00  1.6824407580902494e+00  1.0035386938812623e+00  9.8910863591536202e-01  6.1996945461166597e-01  5.8223554245749709e-01  7.2033787214656675e+00  8.0000000000000000e+00  6.4069140387214043e+00  5.6105506023937100e+00  4.8142071954398489e+00  4.0184350063347232e+00  3.2251428565980960e+00  2.4400949406751589e+00  1.6807109755286869e+00  1.0018159325130944e+00  6.2731439562501545e-01  7.2031974452961993e+00  8.0000000000000000e+00  6.4067555079320462e+00  5.6103767945925078e+00  4.8139267347354968e+00  4.0179024827176457e+00  3.2241555319665989e+00  2.4384298610247854e+00  1.6782680389466929e+00  9.9884155422679388e-01  6.2406345785764705e-01  7.2030203132047737e+00  8.0000000000000000e+00  6.4067155539282137e+00  5.6105264393649019e+00  4.8143374721389032e+00  4.0187015320932034e+00  3.2254911099959851e+00  2.4403140948264546e+00  1.6802055305118793e+00  9.9938100307361533e-01  6.2157816706687607e-01  7.2028126522483875e+00  8.0000000000000000e+00  6.4067719757094226e+00  5.6109026002500517e+00  4.8152233759702803e+00  4.0204641405487322e+00  3.2286456888527550e+00  2.4452342944516654e+00  1.6860778849628077e+00  1.0020439840026945e+00  6.1338463680958610e-01  7.2024522426230240e+00  8.0000000000000000e+00  6.4067894307757181e+00  5.6111542625214801e+00  4.8158426145151330e+00  4.0218107781989048e+00  3.2314138626758173e+00  2.4506063972800898e+00  1.6954464356424535e+00  1.0137327317210525e+00  5.8350817141062361e-01  </DataArray> 
</PointData> 
</Piece>
</UnstructuredGrid>
</VTKFile>