<?xml version="1.0"?>
<VTKFile type="UnstructuredGrid"  version="0.1"  >
<UnstructuredGrid>
<Piece  NumberOfPoints="539" NumberOfCells="2160">
<Points>
<DataArray  type="Float64"  NumberOfComponents="3"  format="ascii">0 0.2 0.2  0.1 0.2 0.2  0.1 0.3 0.2  0.1 0.3 0.3  0.1 0.2 0.3  0 0.2 0.3  0 0.3 0.2  0 0.3 0.3  0.2 0.2 0.2  0.2 0.3 0.2  0.2 0.3 0.3  0.2 0.2 0.3  0.3 0.2 0.2  0.3 0.3 0.2  0.3 0.3 0.3  0.3 0.2 0.3  0.4 0.2 0.2  0.4 0.3 0.2  0.4 0.3 0.3  0.4 0.2 0.3  0.5 0.2 0.2  0.5 0.3 0.2  0.5 0.3 0.3  0.5 0.2 0.3  0.6 0.2 0.2  0.6 0.3 0.2  0.6 0.3 0.3  0.6 0.2 0.3  0.7 0.2 0.2  0.7 0.3 0.2  0.7 0.3 0.3  0.7 0.2 0.3  0.8 0.2 0.2  0.8 0.3 0.2  0.8 0.3 0.3  0.8 0.2 0.3  0.9 0.2 0.2  0.9 0.3 0.2  0.9 0.3 0.3  0.9 0.2 0.3  1 0.2 0.2  1 0.3 0.2  1 0.3 0.3  1 0.2 0.3  0.1 0.4 0.2  0.1 0.4 0.3  0 0.4 0.2  0 0.4 0.3  0.2 0.4 0.2  0.2 0.4 0.3  0.3 0.4 0.2  0.3 0.4 0.3  0.4 0.4 0.2  0.4 0.4 0.3  0.5 0.4 0.2  0.5 0.4 0.3  0.6 0.4 0.2  0.6 0.4 0.3  0.7 0.4 0.2  0.7 0.4 0.3  0.8 0.4 0.2  0.8 0.4 0.3  0.9 0.4 0.2  0.9 0.4 0.3  1 0.4 0.2  1 0.4 0.3  0.1 0.5 0.2  0.1 0.5 0.3  0 0.5 0.2  0 0.5 0.3  0.2 0.5 0.2  0.2 0.5 0.3  0.3 0.5 0.2  0.3 0.5 0.3  0.4 0.5 0.2  0.4 0.5 0.3  0.5 0.5 0.2  0.5 0.5 0.3  0.6 0.5 0.2  0.6 0.5 0.3  0.7 0.5 0.2  0.7 0.5 0.3  0.8 0.5 0.2  0.8 0.5 0.3  0.9 0.5 0.2  0.9 0.5 0.3  1 0.5 0.2  1 0.5 0.3  0.1 0.6 0.2  0.1 0.6 0.3  0 0.6 0.2  0 0.6 0.3  0.2 0.6 0.2  0.2 0.6 0.3  0.3 0.6 0.2  0.3 0.6 0.3  0.4 0.6 0.2  0.4 0.6 0.3  0.5 0.6 0.2  0.5 0.6 0.3  0.6 0.6 0.2  0.6 0.6 0.3  0.7 0.6 0.2  0.7 0.6 0.3  0.8 0.6 0.2  0.8 0.6 0.3  0.9 0.6 0.2  0.9 0.6 0.3  1 0.6 0.2  1 0.6 0.3  0.1 0.7 0.2  0.1 0.7 0.3  0 0.7 0.2  0 0.7 0.3  0.2 0.7 0.2  0.2 0.7 0.3  0.3 0.7 0.2  0.3 0.7 0.3  0.4 0.7 0.2  0.4 0.7 0.3  0.5 0.7 0.2  0.5 0.7 0.3  0.6 0.7 0.2  0.6 0.7 0.3  0.7 0.7 0.2  0.7 0.7 0.3  0.8 0.7 0.2  0.8 0.7 0.3  0.9 0.7 0.2  0.9 0.7 0.3  1 0.7 0.2  1 0.7 0.3  0.1 0.8 0.2  0.1 0.8 0.3  0 0.8 0.2  0 0.8 0.3  0.2 0.8 0.2  0.2 0.8 0.3  0.3 0.8 0.2  0.3 0.8 0.3  0.4 0.8 0.2  0.4 0.8 0.3  0.5 0.8 0.2  0.5 0.8 0.3  0.6 0.8 0.2  0.6 0.8 0.3  0.7 0.8 0.2  0.7 0.8 0.3  0.8 0.8 0.2  0.8 0.8 0.3  0.9 0.8 0.2  0.9 0.8 0.3  1 0.8 0.2  1 0.8 0.3  0.1 0.3 0.4  0.1 0.2 0.4  0 0.2 0.4  0 0.3 0.4  0.2 0.3 0.4  0.2 0.2 0.4  0.3 0.3 0.4  0.3 0.2 0.4  0.4 0.3 0.4  0.4 0.2 0.4  0.5 0.3 0.4  0.5 0.2 0.4  0.6 0.3 0.4  0.6 0.2 0.4  0.7 0.3 0.4  0.7 0.2 0.4  0.8 0.3 0.4  0.8 0.2 0.4  0.9 0.3 0.4  0.9 0.2 0.4  1 0.3 0.4  1 0.2 0.4  0.1 0.4 0.4  0 0.4 0.4  0.2 0.4 0.4  0.3 0.4 0.4  0.4 0.4 0.4  0.5 0.4 0.4  0.6 0.4 0.4  0.7 0.4 0.4  0.8 0.4 0.4  0.9 0.4 0.4  1 0.4 0.4  0.1 0.5 0.4  0 0.5 0.4  0.2 0.5 0.4  0.3 0.5 0.4  0.4 0.5 0.4  0.5 0.5 0.4  0.6 0.5 0.4  0.7 0.5 0.4  0.8 0.5 0.4  0.9 0.5 0.4  1 0.5 0.4  0.1 0.6 0.4  0 0.6 0.4  0.2 0.6 0.4  0.3 0.6 0.4  0.4 0.6 0.4  0.5 0.6 0.4  0.6 0.6 0.4  0.7 0.6 0.4  0.8 0.6 0.4  0.9 0.6 0.4  1 0.6 0.4  0.1 0.7 0.4  0 0.7 0.4  0.2 0.7 0.4  0.3 0.7 0.4  0.4 0.7 0.4  0.5 0.7 0.4  0.6 0.7 0.4  0.7 0.7 0.4  0.8 0.7 0.4  0.9 0.7 0.4  1 0.7 0.4  0.1 0.8 0.4  0 0.8 0.4  0.2 0.8 0.4  0.3 0.8 0.4  0.4 0.8 0.4  0.5 0.8 0.4  0.6 0.8 0.4  0.7 0.8 0.4  0.8 0.8 0.4  0.9 0.8 0.4  1 0.8 0.4  0.1 0.3 0.5  0.1 0.2 0.5  0 0.2 0.5  0 0.3 0.5  0.2 0.3 0.5  0.2 0.2 0.5  0.3 0.3 0.5  0.3 0.2 0.5  0.4 0.3 0.5  0.4 0.2 0.5  0.5 0.3 0.5  0.5 0.2 0.5  0.6 0.3 0.5  0.6 0.2 0.5  0.7 0.3 0.5  0.7 0.2 0.5  0.8 0.3 0.5  0.8 0.2 0.5  0.9 0.3 0.5  0.9 0.2 0.5  1 0.3 0.5  1 0.2 0.5  0.1 0.4 0.5  0 0.4 0.5  0.2 0.4 0.5  0.3 0.4 0.5  0.4 0.4 0.5  0.5 0.4 0.5  0.6 0.4 0.5  0.7 0.4 0.5  0.8 0.4 0.5  0.9 0.4 0.5  1 0.4 0.5  0.1 0.5 0.5  0 0.5 0.5  0.2 0.5 0.5  0.3 0.5 0.5  0.4 0.5 0.5  0.5 0.5 0.5  0.6 0.5 0.5  0.7 0.5 0.5  0.8 0.5 0.5  0.9 0.5 0.5  1 0.5 0.5  0.1 0.6 0.5  0 0.6 0.5  0.2 0.6 0.5  0.3 0.6 0.5  0.4 0.6 0.5  0.5 0.6 0.5  0.6 0.6 0.5  0.7 0.6 0.5  0.8 0.6 0.5  0.9 0.6 0.5  1 0.6 0.5  0.1 0.7 0.5  0 0.7 0.5  0.2 0.7 0.5  0.3 0.7 0.5  0.4 0.7 0.5  0.5 0.7 0.5  0.6 0.7 0.5  0.7 0.7 0.5  0.8 0.7 0.5  0.9 0.7 0.5  1 0.7 0.5  0.1 0.8 0.5  0 0.8 0.5  0.2 0.8 0.5  0.3 0.8 0.5  0.4 0.8 0.5  0.5 0.8 0.5  0.6 0.8 0.5  0.7 0.8 0.5  0.8 0.8 0.5  0.9 0.8 0.5  1 0.8 0.5  0.1 0.3 0.6  0.1 0.2 0.6  0 0.2 0.6  0 0.3 0.6  0.2 0.3 0.6  0.2 0.2 0.6  0.3 0.3 0.6  0.3 0.2 0.6  0.4 0.3 0.6  0.4 0.2 0.6  0.5 0.3 0.6  0.5 0.2 0.6  0.6 0.3 0.6  0.6 0.2 0.6  0.7 0.3 0.6  0.7 0.2 0.6  0.8 0.3 0.6  0.8 0.2 0.6  0.9 0.3 0.6  0.9 0.2 0.6  1 0.3 0.6  1 0.2 0.6  0.1 0.4 0.6  0 0.4 0.6  0.2 0.4 0.6  0.3 0.4 0.6  0.4 0.4 0.6  0.5 0.4 0.6  0.6 0.4 0.6  0.7 0.4 0.6  0.8 0.4 0.6  0.9 0.4 0.6  1 0.4 0.6  0.1 0.5 0.6  0 0.5 0.6  0.2 0.5 0.6  0.3 0.5 0.6  0.4 0.5 0.6  0.5 0.5 0.6  0.6 0.5 0.6  0.7 0.5 0.6  0.8 0.5 0.6  0.9 0.5 0.6  1 0.5 0.6  0.1 0.6 0.6  0 0.6 0.6  0.2 0.6 0.6  0.3 0.6 0.6  0.4 0.6 0.6  0.5 0.6 0.6  0.6 0.6 0.6  0.7 0.6 0.6  0.8 0.6 0.6  0.9 0.6 0.6  1 0.6 0.6  0.1 0.7 0.6  0 0.7 0.6  0.2 0.7 0.6  0.3 0.7 0.6  0.4 0.7 0.6  0.5 0.7 0.6  0.6 0.7 0.6  0.7 0.7 0.6  0.8 0.7 0.6  0.9 0.7 0.6  1 0.7 0.6  0.1 0.8 0.6  0 0.8 0.6  0.2 0.8 0.6  0.3 0.8 0.6  0.4 0.8 0.6  0.5 0.8 0.6  0.6 0.8 0.6  0.7 0.8 0.6  0.8 0.8 0.6  0.9 0.8 0.6  1 0.8 0.6  0.1 0.3 0.7  0.1 0.2 0.7  0 0.2 0.7  0 0.3 0.7  0.2 0.3 0.7  0.2 0.2 0.7  0.3 0.3 0.7  0.3 0.2 0.7  0.4 0.3 0.7  0.4 0.2 0.7  0.5 0.3 0.7  0.5 0.2 0.7  0.6 0.3 0.7  0.6 0.2 0.7  0.7 0.3 0.7  0.7 0.2 0.7  0.8 0.3 0.7  0.8 0.2 0.7  0.9 0.3 0.7  0.9 0.2 0.7  1 0.3 0.7  1 0.2 0.7  0.1 0.4 0.7  0 0.4 0.7  0.2 0.4 0.7  0.3 0.4 0.7  0.4 0.4 0.7  0.5 0.4 0.7  0.6 0.4 0.7  0.7 0.4 0.7  0.8 0.4 0.7  0.9 0.4 0.7  1 0.4 0.7  0.1 0.5 0.7  0 0.5 0.7  0.2 0.5 0.7  0.3 0.5 0.7  0.4 0.5 0.7  0.5 0.5 0.7  0.6 0.5 0.7  0.7 0.5 0.7  0.8 0.5 0.7  0.9 0.5 0.7  1 0.5 0.7  0.1 0.6 0.7  0 0.6 0.7  0.2 0.6 0.7  0.3 0.6 0.7  0.4 0.6 0.7  0.5 0.6 0.7  0.6 0.6 0.7  0.7 0.6 0.7  0.8 0.6 0.7  0.9 0.6 0.7  1 0.6 0.7  0.1 0.7 0.7  0 0.7 0.7  0.2 0.7 0.7  0.3 0.7 0.7  0.4 0.7 0.7  0.5 0.7 0.7  0.6 0.7 0.7  0.7 0.7 0.7  0.8 0.7 0.7  0.9 0.7 0.7  1 0.7 0.7  0.1 0.8 0.7  0 0.8 0.7  0.2 0.8 0.7  0.3 0.8 0.7  0.4 0.8 0.7  0.5 0.8 0.7  0.6 0.8 0.7  0.7 0.8 0.7  0.8 0.8 0.7  0.9 0.8 0.7  1 0.8 0.7  0.1 0.3 0.8  0.1 0.2 0.8  0 0.2 0.8  0 0.3 0.8  0.2 0.3 0.8  0.2 0.2 0.8  0.3 0.3 0.8  0.3 0.2 0.8  0.4 0.3 0.8  0.4 0.2 0.8  0.5 0.3 0.8  0.5 0.2 0.8  0.6 0.3 0.8  0.6 0.2 0.8  0.7 0.3 0.8  0.7 0.2 0.8  0.8 0.3 0.8  0.8 0.2 0.8  0.9 0.3 0.8  0.9 0.2 0.8  1 0.3 0.8  1 0.2 0.8  0.1 0.4 0.8  0 0.4 0.8  0.2 0.4 0.8  0.3 0.4 0.8  0.4 0.4 0.8  0.5 0.4 0.8  0.6 0.4 0.8  0.7 0.4 0.8  0.8 0.4 0.8  0.9 0.4 0.8  1 0.4 0.8  0.1 0.5 0.8  0 0.5 0.8  0.2 0.5 0.8  0.3 0.5 0.8  0.4 0.5 0.8  0.5 0.5 0.8  0.6 0.5 0.8  0.7 0.5 0.8  0.8 0.5 0.8  0.9 0.5 0.8  1 0.5 0.8  0.1 0.6 0.8  0 0.6 0.8  0.2 0.6 0.8  0.3 0.6 0.8  0.4 0.6 0.8  0.5 0.6 0.8  0.6 0.6 0.8  0.7 0.6 0.8  0.8 0.6 0.8  0.9 0.6 0.8  1 0.6 0.8  0.1 0.7 0.8  0 0.7 0.8  0.2 0.7 0.8  0.3 0.7 0.8  0.4 0.7 0.8  0.5 0.7 0.8  0.6 0.7 0.8  0.7 0.7 0.8  0.8 0.7 0.8  0.9 0.7 0.8  1 0.7 0.8  0.1 0.8 0.8  0 0.8 0.8  0.2 0.8 0.8  0.3 0.8 0.8  0.4 0.8 0.8  0.5 0.8 0.8  0.6 0.8 0.8  0.7 0.8 0.8  0.8 0.8 0.8  0.9 0.8 0.8  1 0.8 0.8  </DataArray>
</Points>
<Cells>
[...]
<PointData  Scalars="f_29"> 
<DataArray  type="Float64"  Name="f_29"  format="ascii">8.0000000000000000e+00  7.2020126217176070e+00  7.2018590666249818e+00  7.2019266111299176e+00  7.2019683982251905e+00  8.0000000000000000e+00  8.0000000000000000e+00  8.0000000000000000e+00  6.4035236580571251e+00  6.4033278300819720e+00  6.4033353779729021e+00  6.4034973082684337e+00  5.6055049520562390e+00  5.6052818815366825e+00  5.6052488575788999e+00  5.6054675327078547e+00  4.8079910401916779e+00  4.8077761102569259e+00  4.8076507609171539e+00  4.8078918549007268e+00  4.0109660763562385e+00  4.0108374993922764e+00  4.0105119734993240e+00  4.0107293059108606e+00  3.2143046450659383e+00  3.2143975574717909e+00  3.2137342598423375e+00  3.2138671514037580e+00  2.4175574077324589e+00  2.4180535194530970e+00  2.4169858087190979e+00  2.4169784926796312e+00  1.6194402564566197e+00  1.6204713830476365e+00  1.6192569499445029e+00  1.6189916322616842e+00  8.1658238170304498e-01  8.1763300858156729e-01  8.1719505859073382e-01  8.1613221730790242e-01  0.0000000000000000e+00  0.0000000000000000e+00  0.0000000000000000e+00  0.0000000000000000e+00  7.2014747271181658e+00  7.2015065819273500e+00  8.0000000000000000e+00  8.0000000000000000e+00  6.4030322131771085e+00  6.4030431745498602e+00  5.6050475948762202e+00  5.6050036412462836e+00  4.8076251367076850e+00  4.8074432912024081e+00  4.0108542740576372e+00  4.0103847186190480e+00  3.2147301058777398e+00  3.2137774628100990e+00  2.4189010172086429e+00  2.4173562772684156e+00  1.6219898585413930e+00  1.6202051595130378e+00  8.1941969358219535e-01  8.1876770941634702e-01  0.0000000000000000e+00  0.0000000000000000e+00  7.2011717689133325e+00  7.2011646559507110e+00  8.0000000000000000e+00  8.0000000000000000e+00  6.4027854882897763e+00  6.4027797539579190e+00  5.6048723407653798e+00  5.6048127748091412e+00  4.8075145275946651e+00  4.8072961041255180e+00  4.0108281136924200e+00  4.0102827316880596e+00  3.2148262821063800e+00  3.2137451822828624e+00  2.4191481813416535e+00  2.4174279061401176e+00  1.6223667838546394e+00  1.6204117389505321e+00  8.1977756599641249e-01  8.1907325596637259e-01  0.0000000000000000e+00  0.0000000000000000e+00  7.2009520631388435e+00  7.2008755167151124e+00  8.0000000000000000e+00  8.0000000000000000e+00  6.4026397212975148e+00  6.4026026303847141e+00  5.6047754294620962e+00  5.6047031726435961e+00  4.8074145492363627e+00  4.8071967466619077e+00  4.0106647030620683e+00  4.0101491783095673e+00  3.2145021066161110e+00  3.2135154262045145e+00  2.4184897872846109e+00  2.4169727940642343e+00  1.6211615585015522e+00  1.6195261625889921e+00  8.1819266027646165e-01  8.1783274356293645e-01  0.0000000000000000e+00  0.0000000000000000e+00  7.2009385614918013e+00  7.2007827433181877e+00  8.0000000000000000e+00  8.0000000000000000e+00  6.4026426359052095e+00  6.4025809641029143e+00  5.6047662153125364e+00  5.6046927359790679e+00  4.8073332750181557e+00  4.8071565169542598e+00  4.0104072329913114e+00  4.0100260374740753e+00  3.2138919808000139e+00  3.2132123074622809e+00  2.4172446583479235e+00  2.4162776783251951e+00  1.6189528622910794e+00  1.6180561001062501e+00  8.1539067711437474e-01  8.1560403258299330e-01  0.0000000000000000e+00  0.0000000000000000e+00  7.2011134834921720e+00  7.2011316073517833e+00  8.0000000000000000e+00  8.0000000000000000e+00  6.4026977039002846e+00  6.4026419506383601e+00  5.6047738304302737e+00  5.6047053645194174e+00  4.8072801301372801e+00  4.8071397815967671e+00  4.0102407457803695e+00  4.0099648089502384e+00  3.2135249483658335e+00  3.2130728251190943e+00  2.4165449870221964e+00  2.4159604752572790e+00  1.6177597565034765e+00  1.6172881650016955e+00  8.1387825198674346e-01  8.1402145438630336e-01  0.0000000000000000e+00  0.0000000000000000e+00  7.2015918465157860e+00  7.2016592785160451e+00  8.0000000000000000e+00  8.0000000000000000e+00  6.4031277475433299e+00  6.4032736816063531e+00  5.6049907476982126e+00  5.6052041695120982e+00  4.8071944214927589e+00  4.8074710601631256e+00  4.0097384101378788e+00  4.0100698407571205e+00  3.2126509066003663e+00  3.2130195646974289e+00  2.4159422554618293e+00  2.4163059447979349e+00  1.6190821274097249e+00  1.6192101512786781e+00  8.1851969792793722e-01  8.1732778363872793e-01  0.0000000000000000e+00  0.0000000000000000e+00  7.2014057147267660e+00  8.0000000000000000e+00  6.4029269512116507e+00  5.6047899773966545e+00  4.8069757478867867e+00  4.0094938029044851e+00  3.2124089504220761e+00  2.4158492700939656e+00  1.6195496666631837e+00  8.2004693991712740e-01  0.0000000000000000e+00  7.2010770858767836e+00  8.0000000000000000e+00  6.4026789892328813e+00  5.6046009499852758e+00  4.8067999859089889e+00  4.0093087216815757e+00  3.2122134655266863e+00  2.4156677567556675e+00  1.6194655569708207e+00  8.2019219404350474e-01  0.0000000000000000e+00  7.2007866503306328e+00  8.0000000000000000e+00  6.4024808039574719e+00  5.6044625236441483e+00  4.8066761557640918e+00  4.0091779521822684e+00  3.2120457831797888e+00  2.4153414105560453e+00  1.6187231721335651e+00  8.1898276293825456e-01  0.0000000000000000e+00  7.2007417131335680e+00  8.0000000000000000e+00  6.4024318221090155e+00  5.6044131458404580e+00  4.8066255113950929e+00  4.0091313077987305e+00  3.2119805192020183e+00  2.4150725839552729e+00  1.6177092273336500e+00  8.1678632865919731e-01  0.0000000000000000e+00  7.2010315292262845e+00  8.0000000000000000e+00  6.4024555556356981e+00  5.6044042037635560e+00  4.8066128105750296e+00  4.0091311845573809e+00  3.2119983239467960e+00  2.4150088402247563e+00  1.6171479243081175e+00  8.1506198606516589e-01  0.0000000000000000e+00  7.2012750943120638e+00  7.2013591764256066e+00  8.0000000000000000e+00  8.0000000000000000e+00  6.4028253666572681e+00  6.4029513709971919e+00  5.6045929243780304e+00  5.6047687771753498e+00  4.8065485946758431e+00  4.8067924619739131e+00  4.0087591660840447e+00  4.0090900160702283e+00  3.2114811049217500e+00  3.2119037356803211e+00  2.4152333385254900e+00  2.4156693332005434e+00  1.6201688554086469e+00  1.6202133832204928e+00  8.2224817739526146e-01  8.2029260795031234e-01  0.0000000000000000e+00  0.0000000000000000e+00  7.2011282906087821e+00  8.0000000000000000e+00  6.4026842745923016e+00  5.6044558753052600e+00  4.8063750078116847e+00  4.0084956455241887e+00  3.2110961354922254e+00  2.4148434088877950e+00  1.6202706397456332e+00  8.2357890869961947e-01  0.0000000000000000e+00  7.2008365156319591e+00  8.0000000000000000e+00  6.4024596904842861e+00  5.6042810740211246e+00  4.8061931286643746e+00  4.0082602730577133e+00  3.2107747771320896e+00  2.4144304246058730e+00  1.6198316682222877e+00  8.2335422920453305e-01  0.0000000000000000e+00  7.2005493818797612e+00  8.0000000000000000e+00  6.4022329661554727e+00  5.6040988455655985e+00  4.8060209869233486e+00  4.0080976359310645e+00  3.2106299194748318e+00  2.4142219717666054e+00  1.6192516165040531e+00  8.2225514022775315e-01  0.0000000000000000e+00  7.2004927137523120e+00  8.0000000000000000e+00  6.4021286906376025e+00  5.6039733900751738e+00  4.8058959496673133e+00  4.0080249386811042e+00  3.2106606591508036e+00  2.4142272455247040e+00  1.6186273227248942e+00  8.2018456201225898e-01  0.0000000000000000e+00  7.2006966423161156e+00  8.0000000000000000e+00  6.4021178786684452e+00  5.6039278661915350e+00  4.8058478110957124e+00  4.0080088614080358e+00  3.2107082276225767e+00  2.4142333012769592e+00  1.6180401348881823e+00  8.1791739654338480e-01  0.0000000000000000e+00  7.2009453562247829e+00  7.2010654106652519e+00  8.0000000000000000e+00  8.0000000000000000e+00  6.4024805487863441e+00  6.4025811968822168e+00  5.6040623730142372e+00  5.6041719559639098e+00  4.8056058875733516e+00  4.8057597848980835e+00  4.0071981611357943e+00  4.0074425715178279e+00  3.2092663777772703e+00  3.2096497115965290e+00  2.4129672014747503e+00  2.4133935888771769e+00  1.6199378669997218e+00  1.6196378456338616e+00  8.2688895921889272e-01  8.2329442465276170e-01  0.0000000000000000e+00  0.0000000000000000e+00  7.2008441025376282e+00  8.0000000000000000e+00  6.4023920506696639e+00  5.6039798593179393e+00  4.8054534116002348e+00  4.0068291846034585e+00  3.2084712664503270e+00  2.4116215520006161e+00  1.6183583905445418e+00  8.2582403863781972e-01  0.0000000000000000e+00  7.2005847955831177e+00  8.0000000000000000e+00  6.4021862647649188e+00  5.6038175304905371e+00  4.8052619536517129e+00  4.0065178071973726e+00  3.2079270477747457e+00  2.4107242361127992e+00  1.6170369273035405e+00  8.2427742490948319e-01  0.0000000000000000e+00  7.2002478505135228e+00  8.0000000000000000e+00  6.4019145344393511e+00  5.6036018728961841e+00  4.8050811925641463e+00  4.0064168533356712e+00  3.2080193801252768e+00  2.4110922327049478e+00  1.6174723262180182e+00  8.2434309218069524e-01  0.0000000000000000e+00  7.2000834721554083e+00  8.0000000000000000e+00  6.4017237042301351e+00  5.6034112466919170e+00  4.8049425272491506e+00  4.0064875469264161e+00  3.2085920522790383e+00  2.4123955226955189e+00  1.6191192561489749e+00  8.2513592868881958e-01  0.0000000000000000e+00  7.2002295307486985e+00  8.0000000000000000e+00  6.4016726163149080e+00  5.6033364543386606e+00  4.8048948693609281e+00  4.0065603701673371e+00  3.2089458064283654e+00  2.4131147033215608e+00  1.6196590762227663e+00  8.2389885898584880e-01  0.0000000000000000e+00  7.2007685055127322e+00  7.2009339491346127e+00  8.0000000000000000e+00  8.0000000000000000e+00  6.4022208776108895e+00  6.4022966275808484e+00  5.6035100834826279e+00  5.6035795060009068e+00  4.8044699970499130e+00  4.8046136308823897e+00  4.0050770866924230e+00  4.0054497163985081e+00  3.2057516882482275e+00  3.2066789882970244e+00  2.4080658346608619e+00  2.4100277671779233e+00  1.6157320300889000e+00  1.6189236958640665e+00  8.3155314647348433e-01  8.3623346845848601e-01  0.0000000000000000e+00  0.0000000000000000e+00  7.2007628584320980e+00  8.0000000000000000e+00  6.4021689430921214e+00  5.6034259723986022e+00  4.8042118278925114e+00  4.0043091694517754e+00  3.2038267909145528e+00  2.4040145468136283e+00  1.6087387544587246e+00  8.2220438777093507e-01  0.0000000000000000e+00  7.2005358846587884e+00  8.0000000000000000e+00  6.4019771546752589e+00  5.6032656016713123e+00  4.8039854293572244e+00  4.0038521712751969e+00  3.2028647491167392e+00  2.4021462446697659e+00  1.6055560758312739e+00  8.1792482153575186e-01  0.0000000000000000e+00  7.2001186844181762e+00  8.0000000000000000e+00  6.4016683199371043e+00  5.6030605363260957e+00  4.8038922257291130e+00  4.0039947875982413e+00  3.2035239596500538e+00  2.4037140354829303e+00  1.6081682389639034e+00  8.2055843523581917e-01  0.0000000000000000e+00  7.1996888168844348e+00  8.0000000000000000e+00  6.4013633406471406e+00  5.6028642081847257e+00  4.8039083385335291e+00  4.0045813613420531e+00  3.2054505524634229e+00  2.4082030693070871e+00  1.6160914819347398e+00  8.2925547815424150e-01  0.0000000000000000e+00  7.1995934761070925e+00  8.0000000000000000e+00  6.4012262769520385e+00  5.6027887278059074e+00  4.8039666252881759e+00  4.0050263105951514e+00  3.2068701492273157e+00  2.4116948473661588e+00  1.6229437328437704e+00  8.3815258254383951e-01  0.0000000000000000e+00  7.2010627106804304e+00  7.2010423019456660e+00  8.0000000000000000e+00  8.0000000000000000e+00  6.4021577790442548e+00  6.4022119203114425e+00  5.6032639272303930e+00  5.6033282156890181e+00  4.8039579520186590e+00  4.8041262703518450e+00  4.0041903659201425e+00  4.0046680447352063e+00  3.2047276423333120e+00  3.2059584297574681e+00  2.4093339562854799e+00  2.4121050599481380e+00  1.6321380758547532e+00  1.6370071661730381e+00  9.2381179954357673e-01  9.2757920961608831e-01  5.1586657738536090e-01  5.0821750683904199e-01  7.2010189194466996e+00  8.0000000000000000e+00  6.4020931530292993e+00  5.6031586745671786e+00  4.8036172663495273e+00  4.0031710398755118e+00  3.2021227696711776e+00  2.4035461916121563e+00  1.6212512482279400e+00  9.0849478128341754e-01  5.0283946330244922e-01  7.2007303791744217e+00  8.0000000000000000e+00  6.4019032334086985e+00  5.6030025436003079e+00  4.8033771170628414e+00  4.0026387125833214e+00  3.2009166670963012e+00  2.4010276518136178e+00  1.6165953809724976e+00  9.0118472237756764e-01  4.9301989872830071e-01  7.2002790031201460e+00  8.0000000000000000e+00  6.4015938397122429e+00  5.6028287840797653e+00  4.8033638622455648e+00  4.0029416210411526e+00  3.2018651397804159e+00  2.4030703415722758e+00  1.6199160771555052e+00  9.0467782675430697e-01  4.9372121553919640e-01  7.1996233708692978e+00  8.0000000000000000e+00  6.4012290834977366e+00  5.6026707336532411e+00  4.8035252448116728e+00  4.0038735888598636e+00  3.2045340027799281e+00  2.4090392195634114e+00  1.6306230857499635e+00  9.1829071361875270e-01  4.9987895809644400e-01  7.1986812537474947e+00  8.0000000000000000e+00  6.4009460970149776e+00  5.6025828192539002e+00  4.8036563950222693e+00  4.0046062778721794e+00  3.2068600189809096e+00  2.4151263738156552e+00  1.6443267346547670e+00  9.4252991002688469e-01  4.9358356741949000e-01  </DataArray> 
</PointData> 
</Piece>
</UnstructuredGrid>
</VTKFile>