<?xml version="1.0"?>
<VTKFile type="UnstructuredGrid"  version="0.1"  >
<UnstructuredGrid>
<Piece  NumberOfPoints="539" NumberOfCells="2160">
<Points>
<DataArray  type="Float64"  NumberOfComponents="3"  format="ascii">0 0.2 0.2  0.1 0.2 0.2  0.1 0.3 0.2  0.1 0.3 0.3  0.1 0.2 0.3  0 0.2 0.3  0 0.3 0.2  0 0.3 0.3  0.2 0.2 0.2  0.2 0.3 0.2  0.2 0.3 0.3  0.2 0.2 0.3  0.3 0.2 0.2  0.3 0.3 0.2  0.3 0.3 0.3  0.3 0.2 0.3  0.4 0.2 0.2  0.4 0.3 0.2  0.4 0.3 0.3  0.4 0.2 0.3  0.5 0.2 0.2  0.5 0.3 0.2  0.5 0.3 0.3  0.5 0.2 0.3  0.6 0.2 0.2  0.6 0.3 0.2  0.6 0.3 0.3  0.6 0.2 0.3  0.7 0.2 0.2  0.7 0.3 0.2  0.7 0.3 0.3  0.7 0.2 0.3  0.8 0.2 0.2  0.8 0.3 0.2  0.8 0.3 0.3  0.8 0.2 0.3  0.9 0.2 0.2  0.9 0.3 0.2  0.9 0.3 0.3  0.9 0.2 0.3  1 0.2 0.2  1 0.3 0.2  1 0.3 0.3  1 0.2 0.3  0.1 0.4 0.2  0.1 0.4 0.3  0 0.4 0.2  0 0.4 0.3  0.2 0.4 0.2  0.2 0.4 0.3  0.3 0.4 0.2  0.3 0.4 0.3  0.4 0.4 0.2  0.4 0.4 0.3  0.5 0.4 0.2  0.5 0.4 0.3  0.6 0.4 0.2  0.6 0.4 0.3  0.7 0.4 0.2  0.7 0.4 0.3  0.8 0.4 0.2  0.8 0.4 0.3  0.9 0.4 0.2  0.9 0.4 0.3  1 0.4 0.2  1 0.4 0.3  0.1 0.5 0.2  0.1 0.5 0.3  0 0.5 0.2  0 0.5 0.3  0.2 0.5 0.2  0.2 0.5 0.3  0.3 0.5 0.2  0.3 0.5 0.3  0.4 0.5 0.2  0.4 0.5 0.3  0.5 0.5 0.2  0.5 0.5 0.3  0.6 0.5 0.2  0.6 0.5 0.3  0.7 0.5 0.2  0.7 0.5 0.3  0.8 0.5 0.2  0.8 0.5 0.3  0.9 0.5 0.2  0.9 0.5 0.3  1 0.5 0.2  1 0.5 0.3  0.1 0.6 0.2  0.1 0.6 0.3  0 0.6 0.2  0 0.6 0.3  0.2 0.6 0.2  0.2 0.6 0.3  0.3 0.6 0.2  0.3 0.6 0.3  0.4 0.6 0.2  0.4 0.6 0.3  0.5 0.6 0.2  0.5 0.6 0.3  0.6 0.6 0.2  0.6 0.6 0.3  0.7 0.6 0.2  0.7 0.6 0.3  0.8 0.6 0.2  0.8 0.6 0.3  0.9 0.6 0.2  0.9 0.6 0.3  1 0.6 0.2  1 0.6 0.3  0.1 0.7 0.2  0.1 0.7 0.3  0 0.7 0.2  0 0.7 0.3  0.2 0.7 0.2  0.2 0.7 0.3  0.3 0.7 0.2  0.3 0.7 0.3  0.4 0.7 0.2  0.4 0.7 0.3  0.5 0.7 0.2  0.5 0.7 0.3  0.6 0.7 0.2  0.6 0.7 0.3  0.7 0.7 0.2  0.7 0.7 0.3  0.8 0.7 0.2  0.8 0.7 0.3  0.9 0.7 0.2  0.9 0.7 0.3  1 0.7 0.2  1 0.7 0.3  0.1 0.8 0.2  0.1 0.8 0.3  0 0.8 0.2  0 0.8 0.3  0.2 0.8 0.2  0.2 0.8 0.3  0.3 0.8 0.2  0.3 0.8 0.3  0.4 0.8 0.2  0.4 0.8 0.3  0.5 0.8 0.2  0.5 0.8 0.3  0.6 0.8 0.2  0.6 0.8 0.3  0.7 0.8 0.2  0.7 0.8 0.3  0.8 0.8 0.2  0.8 0.8 0.3  0.9 0.8 0.2  0.9 0.8 0.3  1 0.8 0.2  1 0.8 0.3  0.1 0.3 0.4  0.1 0.2 0.4  0 0.2 0.4  0 0.3 0.4  0.2 0.3 0.4  0.2 0.2 0.4  0.3 0.3 0.4  0.3 0.2 0.4  0.4 0.3 0.4  0.4 0.2 0.4  0.5 0.3 0.4  0.5 0.2 0.4  0.6 0.3 0.4  0.6 0.2 0.4  0.7 0.3 0.4  0.7 0.2 0.4  0.8 0.3 0.4  0.8 0.2 0.4  0.9 0.3 0.4  0.9 0.2 0.4  1 0.3 0.4  1 0.2 0.4  0.1 0.4 0.4  0 0.4 0.4  0.2 0.4 0.4  0.3 0.4 0.4  0.4 0.4 0.4  0.5 0.4 0.4  0.6 0.4 0.4  0.7 0.4 0.4  0.8 0.4 0.4  0.9 0.4 0.4  1 0.4 0.4  0.1 0.5 0.4  0 0.5 0.4  0.2 0.5 0.4  0.3 0.5 0.4  0.4 0.5 0.4  0.5 0.5 0.4  0.6 0.5 0.4  0.7 0.5 0.4  0.8 0.5 0.4  0.9 0.5 0.4  1 0.5 0.4  0.1 0.6 0.4  0 0.6 0.4  0.2 0.6 0.4  0.3 0.6 0.4  0.4 0.6 0.4  0.5 0.6 0.4  0.6 0.6 0.4  0.7 0.6 0.4  0.8 0.6 0.4  0.9 0.6 0.4  1 0.6 0.4  0.1 0.7 0.4  0 0.7 0.4  0.2 0.7 0.4  0.3 0.7 0.4  0.4 0.7 0.4  0.5 0.7 0.4  0.6 0.7 0.4  0.7 0.7 0.4  0.8 0.7 0.4  0.9 0.7 0.4  1 0.7 0.4  0.1 0.8 0.4  0 0.8 0.4  0.2 0.8 0.4  0.3 0.8 0.4  0.4 0.8 0.4  0.5 0.8 0.4  0.6 0.8 0.4  0.7 0.8 0.4  0.8 0.8 0.4  0.9 0.8 0.4  1 0.8 0.4  0.1 0.3 0.5  0.1 0.2 0.5  0 0.2 0.5  0 0.3 0.5  0.2 0.3 0.5  0.2 0.2 0.5  0.3 0.3 0.5  0.3 0.2 0.5  0.4 0.3 0.5  0.4 0.2 0.5  0.5 0.3 0.5  0.5 0.2 0.5  0.6 0.3 0.5  0.6 0.2 0.5  0.7 0.3 0.5  0.7 0.2 0.5  0.8 0.3 0.5  0.8 0.2 0.5  0.9 0.3 0.5  0.9 0.2 0.5  1 0.3 0.5  1 0.2 0.5  0.1 0.4 0.5  0 0.4 0.5  0.2 0.4 0.5  0.3 0.4 0.5  0.4 0.4 0.5  0.5 0.4 0.5  0.6 0.4 0.5  0.7 0.4 0.5  0.8 0.4 0.5  0.9 0.4 0.5  1 0.4 0.5  0.1 0.5 0.5  0 0.5 0.5  0.2 0.5 0.5  0.3 0.5 0.5  0.4 0.5 0.5  0.5 0.5 0.5  0.6 0.5 0.5  0.7 0.5 0.5  0.8 0.5 0.5  0.9 0.5 0.5  1 0.5 0.5  0.1 0.6 0.5  0 0.6 0.5  0.2 0.6 0.5  0.3 0.6 0.5  0.4 0.6 0.5  0.5 0.6 0.5  0.6 0.6 0.5  0.7 0.6 0.5  0.8 0.6 0.5  0.9 0.6 0.5  1 0.6 0.5  0.1 0.7 0.5  0 0.7 0.5  0.2 0.7 0.5  0.3 0.7 0.5  0.4 0.7 0.5  0.5 0.7 0.5  0.6 0.7 0.5  0.7 0.7 0.5  0.8 0.7 0.5  0.9 0.7 0.5  1 0.7 0.5  0.1 0.8 0.5  0 0.8 0.5  0.2 0.8 0.5  0.3 0.8 0.5  0.4 0.8 0.5  0.5 0.8 0.5  0.6 0.8 0.5  0.7 0.8 0.5  0.8 0.8 0.5  0.9 0.8 0.5  1 0.8 0.5  0.1 0.3 0.6  0.1 0.2 0.6  0 0.2 0.6  0 0.3 0.6  0.2 0.3 0.6  0.2 0.2 0.6  0.3 0.3 0.6  0.3 0.2 0.6  0.4 0.3 0.6  0.4 0.2 0.6  0.5 0.3 0.6  0.5 0.2 0.6  0.6 0.3 0.6  0.6 0.2 0.6  0.7 0.3 0.6  0.7 0.2 0.6  0.8 0.3 0.6  0.8 0.2 0.6  0.9 0.3 0.6  0.9 0.2 0.6  1 0.3 0.6  1 0.2 0.6  0.1 0.4 0.6  0 0.4 0.6  0.2 0.4 0.6  0.3 0.4 0.6  0.4 0.4 0.6  0.5 0.4 0.6  0.6 0.4 0.6  0.7 0.4 0.6  0.8 0.4 0.6  0.9 0.4 0.6  1 0.4 0.6  0.1 0.5 0.6  0 0.5 0.6  0.2 0.5 0.6  0.3 0.5 0.6  0.4 0.5 0.6  0.5 0.5 0.6  0.6 0.5 0.6  0.7 0.5 0.6  0.8 0.5 0.6  0.9 0.5 0.6  1 0.5 0.6  0.1 0.6 0.6  0 0.6 0.6  0.2 0.6 0.6  0.3 0.6 0.6  0.4 0.6 0.6  0.5 0.6 0.6  0.6 0.6 0.6  0.7 0.6 0.6  0.8 0.6 0.6  0.9 0.6 0.6  1 0.6 0.6  0.1 0.7 0.6  0 0.7 0.6  0.2 0.7 0.6  0.3 0.7 0.6  0.4 0.7 0.6  0.5 0.7 0.6  0.6 0.7 0.6  0.7 0.7 0.6  0.8 0.7 0.6  0.9 0.7 0.6  1 0.7 0.6  0.1 0.8 0.6  0 0.8 0.6  0.2 0.8 0.6  0.3 0.8 0.6  0.4 0.8 0.6  0.5 0.8 0.6  0.6 0.8 0.6  0.7 0.8 0.6  0.8 0.8 0.6  0.9 0.8 0.6  1 0.8 0.6  0.1 0.3 0.7  0.1 0.2 0.7  0 0.2 0.7  0 0.3 0.7  0.2 0.3 0.7  0.2 0.2 0.7  0.3 0.3 0.7  0.3 0.2 0.7  0.4 0.3 0.7  0.4 0.2 0.7  0.5 0.3 0.7  0.5 0.2 0.7  0.6 0.3 0.7  0.6 0.2 0.7  0.7 0.3 0.7  0.7 0.2 0.7  0.8 0.3 0.7  0.8 0.2 0.7  0.9 0.3 0.7  0.9 0.2 0.7  1 0.3 0.7  1 0.2 0.7  0.1 0.4 0.7  0 0.4 0.7  0.2 0.4 0.7  0.3 0.4 0.7  0.4 0.4 0.7  0.5 0.4 0.7  0.6 0.4 0.7  0.7 0.4 0.7  0.8 0.4 0.7  0.9 0.4 0.7  1 0.4 0.7  0.1 0.5 0.7  0 0.5 0.7  0.2 0.5 0.7  0.3 0.5 0.7  0.4 0.5 0.7  0.5 0.5 0.7  0.6 0.5 0.7  0.7 0.5 0.7  0.8 0.5 0.7  0.9 0.5 0.7  1 0.5 0.7  0.1 0.6 0.7  0 0.6 0.7  0.2 0.6 0.7  0.3 0.6 0.7  0.4 0.6 0.7  0.5 0.6 0.7  0.6 0.6 0.7  0.7 0.6 0.7  0.8 0.6 0.7  0.9 0.6 0.7  1 0.6 0.7  0.1 0.7 0.7  0 0.7 0.7  0.2 0.7 0.7  0.3 0.7 0.7  0.4 0.7 0.7  0.5 0.7 0.7  0.6 0.7 0.7  0.7 0.7 0.7  0.8 0.7 0.7  0.9 0.7 0.7  1 0.7 0.7  0.1 0.8 0.7  0 0.8 0.7  0.2 0.8 0.7  0.3 0.8 0.7  0.4 0.8 0.7  0.5 0.8 0.7  0.6 0.8 0.7  0.7 0.8 0.7  0.8 0.8 0.7  0.9 0.8 0.7  1 0.8 0.7  0.1 0.3 0.8  0.1 0.2 0.8  0 0.2 0.8  0 0.3 0.8  0.2 0.3 0.8  0.2 0.2 0.8  0.3 0.3 0.8  0.3 0.2 0.8  0.4 0.3 0.8  0.4 0.2 0.8  0.5 0.3 0.8  0.5 0.2 0.8  0.6 0.3 0.8  0.6 0.2 0.8  0.7 0.3 0.8  0.7 0.2 0.8  0.8 0.3 0.8  0.8 0.2 0.8  0.9 0.3 0.8  0.9 0.2 0.8  1 0.3 0.8  1 0.2 0.8  0.1 0.4 0.8  0 0.4 0.8  0.2 0.4 0.8  0.3 0.4 0.8  0.4 0.4 0.8  0.5 0.4 0.8  0.6 0.4 0.8  0.7 0.4 0.8  0.8 0.4 0.8  0.9 0.4 0.8  1 0.4 0.8  0.1 0.5 0.8  0 0.5 0.8  0.2 0.5 0.8  0.3 0.5 0.8  0.4 0.5 0.8  0.5 0.5 0.8  0.6 0.5 0.8  0.7 0.5 0.8  0.8 0.5 0.8  0.9 0.5 0.8  1 0.5 0.8  0.1 0.6 0.8  0 0.6 0.8  0.2 0.6 0.8  0.3 0.6 0.8  0.4 0.6 0.8  0.5 0.6 0.8  0.6 0.6 0.8  0.7 0.6 0.8  0.8 0.6 0.8  0.9 0.6 0.8  1 0.6 0.8  0.1 0.7 0.8  0 0.7 0.8  0.2 0.7 0.8  0.3 0.7 0.8  0.4 0.7 0.8  0.5 0.7 0.8  0.6 0.7 0.8  0.7 0.7 0.8  0.8 0.7 0.8  0.9 0.7 0.8  1 0.7 0.8  0.1 0.8 0.8  0 0.8 0.8  0.2 0.8 0.8  0.3 0.8 0.8  0.4 0.8 0.8  0.5 0.8 0.8  0.6 0.8 0.8  0.7 0.8 0.8  0.8 0.8 0.8  0.9 0.8 0.8  1 0.8 0.8  </DataArray>
</Points>
<Cells>
[...]
<PointData  Vectors="f_23"> 
<DataArray  type="Float64"  Name="f_23"  NumberOfComponents="3" format="ascii">-7.4794178406038055e-04 -2.2804823054116933e-04 -1.1290957521440543e-05  -6.4811662201126597e-04 -3.3731884349404086e-04 -1.2237416911329485e-05  -7.4496716646969981e-04 -2.4054284976103229e-04 -2.2609290353913398e-05  7.7241201528408437e-02 -2.9773212121889754e-04 -5.3136128129319994e-04  -6.5416186532164550e-04 -3.2270358707089686e-04 -1.9666307120727400e-05  -7.4422336234511021e-04 -2.1956059853031262e-04 -1.8395758676711863e-05  -8.3637952874415300e-04 -1.5066343601377203e-04 -2.0673311296839370e-05  7.7989816025316891e-02 -1.5581078544199981e-03 -1.4461936604979909e-03  -5.1939630548217025e-04 -5.1231861148934798e-04 1.0037171380599520e-05  -6.1259319521258561e-04 -3.9042813211553765e-04 -1.9357183341245039e-05  7.8123313714228398e-02 -3.9175010080723423e-05 -2.8847948540473958e-04  -5.2171028867463280e-04 -5.2716183900999988e-04 -2.0274839046582942e-06  -3.6117195903971497e-04 -6.5334423018964299e-04 5.8011856090996843e-05  -4.4997894621409050e-04 -5.1145904162998236e-04 1.3221989453344229e-06  7.8193320944262179e-02 1.5233995932971387e-04 -3.9641402080662860e-04  -3.5209676640557798e-04 -7.2394631180556623e-04 5.4568735286041631e-05  -1.8433438349285065e-04 -7.3119881321938741e-04 1.2236834348782437e-04  -2.5290192830161080e-04 -5.8475750167405710e-04 3.6623134294980930e-05  7.8442252182005762e-02 3.6705999398090224e-04 -6.1405009763313930e-04  -1.7167944461092346e-04 -8.8180202242739403e-04 1.5424311753048017e-04  7.2395431213771676e-06 -7.0895797329948817e-04 1.7084148880600462e-04  -2.5838840614110196e-05 -5.8541486780122533e-04 6.9983169680102363e-05  7.8906177210943215e-02 6.3029799724463749e-04 -9.0988972137422131e-04  -5.4904577750190049e-06 -9.4604108182717427e-04 2.6731319115411395e-04  2.3645222609292499e-04 -5.6868013278613160e-04 1.6344010040764519e-04  2.3802423688930853e-04 -4.9563935310111028e-04 7.7512549718998131e-05  7.9565530863275613e-02 8.6313539476646269e-04 -1.2038155210274094e-03  1.5806522529488237e-04 -8.5246190847002663e-04 3.2363392645772205e-04  5.3799283452871213e-04 -3.5003427881567442e-04 9.3964665432301380e-05  5.4836536512711321e-04 -3.3154311535898404e-04 4.8688926928054019e-05  8.0105680216479305e-02 1.0012306959704283e-03 -1.2895417723554545e-03  3.8874103615814913e-04 -5.9796680727776245e-04 2.5392707832123354e-04  9.1174106461373080e-04 -1.5083574298689720e-04 2.9191326137375314e-05  8.9896632110509917e-04 -1.5817761208035020e-04 1.0973509070241039e-05  7.9457761665297166e-02 9.9220056502861650e-04 -6.6441598998307546e-04  7.4462800767495496e-04 -3.0215323121829385e-04 9.7955578889892083e-05  1.2356298294609123e-03 -5.2360547653004143e-05 3.1079484701021464e-05  1.2272548131256457e-03 -5.5513745426040666e-05 1.8021641129211101e-05  7.6328987648723992e-02 7.0515390227031849e-04 5.9974840587409095e-04  1.1275666221986648e-03 -1.0804858609622255e-04 7.4023214329597248e-05  1.4006130529156775e-03 -2.8920116912183061e-05 4.1860868367526427e-05  1.4129665604536150e-03 -2.5162962973927474e-05 8.2594566691875336e-06  7.3444020860422177e-02 -1.2660067784487134e-04 -1.8739676123783349e-03  1.3761511831379505e-03 -7.1098760752683087e-05 5.8353752263909065e-05  -8.7911828761696683e-04 -1.4960876220663450e-04 -3.5103566660715834e-05  1.1298328748804391e-01 3.5572274521238317e-04 -4.1214333438594153e-04  -9.6459495737580237e-04 -9.3035861424695701e-05 -2.6776467641860764e-05  1.1412815835295119e-01 -1.5256823545553634e-03 -1.4394235483388487e-03  -7.2935926617298508e-04 -2.5334052823509045e-04 -4.8892340207336612e-05  1.1372299011200521e-01 3.5237817163747429e-04 -2.2524724926945900e-04  -5.3327998637905905e-04 -3.4135669916831517e-04 -5.4537127992385092e-05  1.1399232615778220e-01 4.0058844554618220e-04 -2.0528112405773184e-04  -2.8710250212139521e-04 -3.9443883983165484e-04 -5.1526657589209737e-05  1.1418111438979621e-01 5.4081011351969296e-04 -2.0567752368244439e-04  5.1264555829633966e-06 -3.9815765193747384e-04 -4.3967581126422809e-05  1.1442909424611764e-01 6.9494331271884686e-04 -1.7976405601435869e-04  3.3370482804187730e-04 -3.4329801936161725e-04 -3.7198243015433560e-05  1.1468785212364481e-01 7.3992825926428966e-04 -6.7131135250721760e-05  6.7889393618268440e-04 -2.3777108028360015e-04 -3.4380019917056075e-05  1.1473975843256323e-01 5.6686187872217889e-04 2.0136966749026181e-04  1.0170118729298421e-03 -1.1903592115063609e-04 -3.1480152088518798e-05  1.1411658759233612e-01 1.8230139457828465e-04 6.5531720026395265e-04  1.3048608619191482e-03 -4.7094186978930738e-05 -5.9111616812027980e-06  1.1221808134845412e-01 -2.7968728195122071e-04 8.0203262428144159e-04  1.4626203291218285e-03 -2.4542325935373641e-05 -1.7971485181350741e-05  1.0972051267960924e-01 -1.2631398916762937e-04 -2.4810297709545195e-03  -9.6801739531250880e-04 -9.4040033935914301e-05 -4.0366950471431899e-05  1.2441186106059531e-01 1.9921085891792161e-04 -3.1752098225153408e-04  -1.0460211931466981e-03 -5.6011736248984450e-05 -2.8576299570881738e-05  1.2537140585355053e-01 -1.0181119391247644e-03 -1.3461421879372739e-03  -8.1283913619600206e-04 -1.6417276158327328e-04 -6.0991646699775761e-05  1.2503467490880157e-01 3.4481829195699232e-04 -1.3205691889336033e-04  -5.9232835349329663e-04 -2.2625671654847242e-04 -7.8197478829504825e-05  1.2532808632108833e-01 3.2928552701514698e-04 -7.8072486650595534e-05  -3.0959250328031963e-04 -2.6433797202452290e-04 -8.9396814280219013e-05  1.2557600243593819e-01 3.5210257454484158e-04 -2.2863751595438838e-05  2.7626659794672541e-05 -2.6818113989280186e-04 -9.3227956256394646e-05  1.2580344078182168e-01 3.7432968019982514e-04 7.0903974279099680e-05  3.9969605353474869e-04 -2.3334490652841239e-04 -8.7003631127084710e-05  1.2590394455578163e-01 3.1412554463495731e-04 2.4366743259730871e-04  7.7044145807319089e-04 -1.6474851675571896e-04 -7.0331360052958966e-05  1.2567640241216635e-01 1.0227407363403874e-04 5.2096048030619022e-04  1.1012197373209281e-03 -8.1879610489620384e-05 -4.9873547345784184e-05  1.2492785298145412e-01 -2.2999275758941513e-04 8.1129679429286594e-04  1.3579596506206708e-03 -3.2066961789020009e-05 -1.8222170465547690e-05  1.2356453033273285e-01 -5.2836039894233616e-04 5.3121645843420026e-04  1.4940521221944703e-03 -1.8888523994492764e-05 -2.4670444329674453e-05  1.2137161543517873e-01 -1.1217349061219571e-04 -2.3408639740411662e-03  -1.0277028182023662e-03 -5.7210751435515045e-05 -4.0172947991322853e-05  1.1318684399974435e-01 1.4318154369458345e-04 -2.6220062873078784e-04  -1.0969405824097353e-03 -3.4003956309485159e-05 -2.8413397697515955e-05  1.1399704919255282e-01 -5.8938051269034626e-04 -1.2409224375863309e-03  -8.7440865437019553e-04 -1.0725639127629128e-04 -6.0242440433090155e-05  1.1373112840409177e-01 2.1295335681732663e-04 -8.5905395854294465e-05  -6.4102275803115498e-04 -1.5582776130707203e-04 -7.7756391089349997e-05  1.1398832398013559e-01 1.5597425865862083e-04 -2.2716860742702930e-05  -3.3431464125951315e-04 -1.9027797226312221e-04 -9.0324847914724258e-05  1.1422424713606412e-01 9.3514359424402038e-05 4.0693708864162727e-05  3.3432497197434422e-05 -2.0154596725432755e-04 -9.5006794142562818e-05  1.1442230188842355e-01 2.0537246468790835e-05 1.3705269028634011e-04  4.3672135139644568e-04 -1.8588889983586144e-04 -8.7332721352158924e-05  1.1444896869056757e-01 -8.8340169829751402e-05 2.9308438317242764e-04  8.3119561102720926e-04 -1.4446185821962601e-04 -6.7104281216482568e-05  1.1413002041775958e-01 -2.3510363209836366e-04 5.1373558434143654e-04  1.1664712636652917e-03 -8.2008427933655503e-05 -4.5175405894045005e-05  1.1339030579022458e-01 -3.5027543214508322e-04 6.7105804006006918e-04  1.3997748551032490e-03 -3.2049836467789467e-05 -1.8203496276190663e-05  1.1233174889453726e-01 -2.9757715127346266e-04 2.7395666760897180e-04  1.5184526062240842e-03 -2.6201299093415943e-05 -2.1312031936091289e-05  1.1076261529246678e-01 6.2679223384251405e-05 -2.0016964296262472e-03  -1.0699822126223175e-03 -3.3199494704692228e-05 -3.9456128748953837e-05  7.6632681264642594e-02 9.6860934076306229e-05 -2.4344023386964808e-04  -1.1277063234181599e-03 -1.7962307267520366e-05 -2.8344881295517146e-05  7.6553231501664237e-02 -4.4675101072018289e-04 -1.0720004003746415e-03  -9.3111434831386346e-04 -6.8468948946848342e-05 -5.4037988936143911e-05  7.7086053241960981e-02 4.0614070250734742e-05 -7.6476013215449627e-05  -7.0013259195256076e-04 -1.1281717536814501e-04 -6.5779115765162628e-05  7.7237833012861953e-02 -9.7688639413940433e-05 -1.9975495727435929e-05  -3.8297787602935979e-04 -1.5415779437613823e-04 -7.3904268684692743e-05  7.7357179960497818e-02 -2.3828703246262767e-04 2.7574453639398883e-05  3.6345893501874497e-06 -1.7987777394233500e-04 -7.6121681109909641e-05  7.7453445813793251e-02 -3.9041546447121618e-04 1.1301013146617153e-04  4.2981158320072355e-04 -1.8373318525696016e-04 -6.7192520092059104e-05  7.7427379554820666e-02 -5.4124107529356178e-04 2.5459671072689552e-04  8.5118605001377782e-04 -1.6411980122033035e-04 -4.7065038265328830e-05  7.7169896841617125e-02 -6.5057669826289774e-04 4.3597132456838134e-04  1.2149738301968096e-03 -1.2060422678158923e-04 -2.8433661538429875e-05  7.6631161204306075e-02 -6.4656410511848062e-04 5.3313550120039294e-04  1.4441852460414339e-03 -6.3158915432360416e-05 -1.1143710897067950e-05  7.5641168331324879e-02 -4.9140889308996356e-04 2.0470205902394265e-04  1.5477595860296945e-03 -4.3879661270799760e-05 -1.4144407370450775e-05  7.5031668597654338e-02 1.8387907154240790e-04 -1.6123570608955185e-03  -1.1119370120218717e-03 -2.9311070166492307e-05 -2.4841052009936391e-05  -1.1310116718976936e-03 -1.7637499680103996e-05 -2.6553088962752226e-05  -1.1403727501943779e-03 -1.5452664857002590e-05 -2.0843966476124890e-05  -1.1491143025262104e-03 -2.0264471365490318e-05 -2.0951116196011790e-05  -1.0062401880271451e-03 -5.8237007462108566e-05 -4.3187505700043823e-05  -1.0460362650796013e-03 -4.3855702531659209e-05 -4.6431619427379672e-05  -8.1147178583887588e-04 -9.5893038641517976e-05 -5.7925803655121318e-05  -8.8573710987243552e-04 -8.3006447765258381e-05 -6.1209902940688151e-05  -5.2843243735295887e-04 -1.3647955481291624e-04 -6.5536801371154986e-05  -6.3591335033446759e-04 -1.2827469917207381e-04 -7.2209230201376014e-05  -1.6739858296580836e-04 -1.6644792071031473e-04 -6.8388703335595341e-05  -3.0437570793644450e-04 -1.6406295678771267e-04 -7.9758381742421830e-05  2.5020625664665401e-04 -1.7726696316261922e-04 -6.4271325534755831e-05  9.0758261111233520e-05 -1.8113667666698669e-04 -7.9291556902002619e-05  6.8417340399806108e-04 -1.6409520811192879e-04 -5.0177139748367674e-05  5.1654154671606264e-04 -1.7537720601100906e-04 -6.6806762072722401e-05  1.0818902096464153e-03 -1.2378759932943486e-04 -3.1292957078802568e-05  9.2367268177198755e-04 -1.4387067225458887e-04 -4.7031838676664274e-05  1.4073995614807442e-03 -7.2341378158682513e-05 -1.2561843009779734e-05  1.2718106503332007e-03 -9.4565861926441597e-05 -2.6897949425329818e-05  1.5512670967031388e-03 -5.0364006905651772e-05 1.3492414515348084e-06  1.4365623095584851e-03 -5.9575875913773843e-05 -1.2492838607109517e-05  1.1275772310263868e-01 -2.5028121140840298e-04 -1.3805354263168564e-04  -6.6867018107482148e-04 -3.1996330101870132e-04 -4.7843666042640734e-05  -7.6913550001052702e-04 -2.0866613229672965e-04 -4.1248215377022364e-05  1.1369600067605734e-01 -1.5405590891263126e-03 -1.1469129830840184e-03  1.1357123961878331e-01 -4.8525525688353573e-05 -1.2025567838154711e-04  -5.0406583291576288e-04 -5.5192026749143711e-04 -5.1318127515989188e-05  1.1349429118871011e-01 1.4558104775181757e-04 -3.2926656315535908e-04  -2.7620455782011383e-04 -8.1947830578457063e-04 -2.3228863900155119e-07  1.1353410681683226e-01 3.8327760491318742e-04 -6.7739440773812169e-04  -3.1229218371263375e-05 -1.1088263010285686e-03 1.3875480814321385e-04  1.1382676746394574e-01 7.4708895122667309e-04 -1.1803038737192826e-03  1.6013277547248408e-04 -1.3577794520641005e-03 3.7027500206362877e-04  1.1457847803651751e-01 1.1674484288104953e-03 -1.7348978190744105e-03  2.4512879373296727e-04 -1.4273644044575620e-03 6.1759766471230072e-04  1.1598085497884936e-01 1.3350753383147723e-03 -2.0368127468585991e-03  2.9987633087137546e-04 -1.1763621488028436e-03 6.8477135584474455e-04  1.1654025267231764e-01 1.3269001091667457e-03 -1.6082379035123374e-03  5.5224469349199562e-04 -6.7835320030185792e-04 3.9834581208349104e-04  1.1206021666686046e-01 1.3110228237650768e-03 2.5381690437704013e-04  9.2179473443017735e-04 -2.6227448380422292e-04 2.1387288734880624e-04  1.0662192201738689e-01 -6.9127407984008831e-05 -3.5233977788796229e-03  1.2389997331959883e-03 -1.7916238963716858e-04 2.3016576201334991e-04  1.7245789615592852e-01 4.9053240012387740e-04 -7.7638249870060397e-05  1.7311460929917818e-01 -1.5657660696067729e-03 -1.1635775113275368e-03  1.7309330952643437e-01 4.0490793159553306e-04 -9.6625706291900932e-05  1.7338890062110149e-01 4.9893897969615231e-04 -2.1634825492213754e-04  1.7347933575746224e-01 7.6539288868129874e-04 -3.3682744806339579e-04  1.7360154119722770e-01 1.1407014519570224e-03 -4.3540128989861680e-04  1.7386776278623331e-01 1.4409238217926222e-03 -4.0412207799387690e-04  1.7426184720523288e-01 1.2985599049969024e-03 -8.4468912819761867e-05  1.7415133915697104e-01 5.2314200154137660e-04 5.6592081526493654e-04  1.7176479400648392e-01 -4.0196190021752725e-04 7.2593335180896326e-04  1.6666171557705206e-01 3.1873860758037202e-04 -4.7071679862956874e-03  1.9138364727268048e-01 2.9304742602643359e-04 -2.9616531555983819e-05  1.9176478327004037e-01 -1.0259017705674591e-03 -1.1296245579737177e-03  1.9186872460732635e-01 4.3404449888310678e-04 -5.0982041054488443e-05  1.9219341852252747e-01 4.3100441336097975e-04 -1.2294803280688259e-04  1.9237979609689007e-01 5.1814335557429721e-04 -1.6610430361988291e-04  1.9253843459701217e-01 6.5620959836490845e-04 -1.7950843510575317e-04  1.9267131991969030e-01 7.1886956574131612e-04 -1.1358875284802677e-04  1.9263019709395579e-01 5.0581270624471735e-04 1.0767967845459570e-04  1.9202986922791124e-01 -9.4400018245471449e-05 4.7565830668124811e-04  1.9031522039818963e-01 -8.0415334491085427e-04 8.5057000104973629e-05  1.8611923015805276e-01 2.2015143471420322e-04 -4.5125725970095029e-03  1.7265009280601382e-01 2.0735254932980935e-04 -1.7543552955183816e-05  1.7286438836910897e-01 -5.6242217381943739e-04 -1.0779999097839913e-03  1.7304869973557258e-01 2.9728993003933212e-04 -2.6445809970810022e-05  1.7332702793435578e-01 2.4053246214771621e-04 -7.6011228527718275e-05  1.7351080244725758e-01 1.9688934661128184e-04 -9.0332094711556592e-05  1.7365383605308005e-01 1.6463133240591260e-04 -8.2867954390164817e-05  1.7370386399729759e-01 8.9939841435771788e-05 -3.9346031540643800e-05  1.7347652566187763e-01 -9.0376211158348880e-05 6.6174915713752377e-05  1.7274451797558624e-01 -3.6259579305547319e-04 2.2620876691786939e-04  1.7150196376463289e-01 -4.9839903484954335e-04 -3.5931373678488928e-04  1.6889250972001021e-01 4.4963763566078965e-04 -3.9107622915368536e-03  1.1293896605127385e-01 1.3381387953727641e-04 -1.2421790425247266e-05  1.1235468117213043e-01 -4.1043672696761395e-04 -9.6754023697861969e-04  1.1323849292498871e-01 8.9086133176780388e-05 -1.1502573082961809e-05  1.1339254997723772e-01 -4.7978612524756326e-05 -5.5065076508790997e-05  1.1346313372342638e-01 -1.9906280608130092e-04 -5.8899888267013823e-05  1.1349687415072673e-01 -3.5269635429527216e-04 -2.9934215128843205e-05  1.1346461520286667e-01 -5.1507906978645200e-04 4.0548256119996256e-05  1.1323591054785832e-01 -6.7094375902689550e-04 1.6332670431635756e-04  1.1264680249753384e-01 -7.3402922646900390e-04 2.6318176169475200e-04  1.1158955891458373e-01 -5.5777504980195124e-04 -3.1997091757025566e-04  1.1086975129041735e-01 5.3564512675949804e-04 -3.0738303071616738e-03  -1.1593639241911017e-03 -1.7373053373733176e-05 -2.0453067993143941e-05  -1.1779804486495384e-03 -1.9108127584271321e-05 -1.9348816519805838e-05  -1.0727658746052485e-03 -4.1279274866013267e-05 -4.6597836389785055e-05  -9.1036516336834002e-04 -7.4996105739928069e-05 -7.4209788522657753e-05  -6.6129792058843288e-04 -1.1286223464668551e-04 -9.7066680241735182e-05  -3.2911415480924581e-04 -1.4228800712048599e-04 -1.1401976614034262e-04  7.3727017241218619e-05 -1.5480102996177941e-04 -1.2063072874483770e-04  5.1248813115674482e-04 -1.4620614905227011e-04 -1.1190289916265179e-04  9.2706287362499893e-04 -1.1523462891264660e-04 -9.0063417987417581e-05  1.2797248302260917e-03 -7.2795744078356828e-05 -5.9874241459924866e-05  1.4339042587410860e-03 -4.6103189489680310e-05 -3.1855698286347784e-05  1.2402048749316369e-01 -2.4052574827804706e-04 3.9092235204791568e-06  -7.1015064421752752e-04 -2.9132973683668943e-04 -8.3460896994093305e-05  -8.1818025077112929e-04 -1.8216464126258225e-04 -6.2665150725174336e-05  1.2496367668873146e-01 -1.5481987244486608e-03 -9.2809144672357656e-04  1.2477053149285225e-01 -1.0247327008541138e-05 8.5700855757073937e-05  -5.1262356356657126e-04 -5.2627339887213753e-04 -1.2616351936693289e-04  1.2458031338028683e-01 1.7366519620300476e-04 -1.1738327530765628e-05  -2.0817959975834175e-04 -8.4134853532096703e-04 -1.1700591522442447e-04  1.2451287577249429e-01 4.1789049610586578e-04 -2.3647167198879816e-04  1.6687236844346737e-04 -1.2691271137796189e-03 1.1426273704087718e-05  1.2466463960171620e-01 8.9895759888626711e-04 -6.9092846341792529e-04  5.1070689573580041e-04 -1.8005434157138524e-03 3.4597275991273560e-04  1.2523955198956782e-01 1.7666904108355442e-03 -1.3884779732946909e-03  6.2888457675540138e-04 -2.2807721567224899e-03 9.2260739752867934e-04  1.2688813404451571e-01 2.6219322803768671e-03 -2.0386330517997114e-03  3.9461819469754417e-04 -2.3472354715199906e-03 1.5318354268788765e-03  1.2951530198988964e-01 1.6996888612562913e-03 -2.1100028560538408e-03  2.4138417464875759e-04 -1.6775247095397667e-03 1.5653484386485349e-03  1.2388802512026720e-01 1.6376783469170919e-03 -1.6794388864816556e-03  3.5664770750640896e-04 -7.3205869472482026e-04 6.5072302224270461e-04  1.0985731450824927e-01 1.9482153282867746e-03 -6.5342930216608138e-03  4.8335148477150324e-04 -5.2262064578821458e-04 1.0709102790400998e-03  1.9123758153730333e-01 4.8846223428049794e-04 -1.5502475534251985e-05  1.9186524748276565e-01 -1.5590990549205542e-03 -9.1562889973449246e-04  1.9184666441034381e-01 4.1052189354220248e-04 4.4264297122549317e-05  1.9212811907756544e-01 5.2296624108614089e-04 -3.2974891115889242e-05  1.9225479381324984e-01 8.6724546493602576e-04 -1.4043156800543628e-04  1.9241859445244403e-01 1.4819120176097049e-03 -2.6292546250938220e-04  1.9268520719286902e-01 2.2956911579202943e-03 -2.9420102568504769e-04  1.9313680792948471e-01 2.6381237379670738e-03 4.3267172180694745e-06  1.9327705202565151e-01 1.2202379186655372e-03 6.8404873816945778e-04  1.9002651965981454e-01 -1.2915491249146319e-03 8.7956275453563988e-04  1.8027067164871832e-01 1.1668029945766051e-03 -7.9316608730204963e-03  2.1266620746014009e-01 3.1316865546224585e-04 5.7822632789326575e-06  2.1299393313909842e-01 -9.9946277586638113e-04 -8.9322363861729312e-04  2.1311563001066811e-01 4.5293525357703747e-04 6.8004754221969758e-05  2.1344054583576330e-01 4.6581078303280249e-04 3.2460682030989009e-05  2.1366288069296840e-01 6.0516991118283482e-04 9.2772697327351805e-06  2.1387566330872407e-01 8.6209932087572374e-04 4.6740730327861222e-06  2.1408569878242872e-01 1.1064931495689460e-03 3.3309817769858966e-05  2.1414799445373617e-01 9.5853897774982023e-04 1.0293568018074200e-04  2.1333073016953952e-01 -7.4021361934092548e-05 1.5169210776808876e-04  2.1047559808740024e-01 -1.5781313546491089e-03 -1.8450875817372769e-04  2.0329594524411843e-01 6.1788216609628326e-04 -7.2029743753871415e-03  1.9143071790032029e-01 2.3108570429286241e-04 1.3440152135769110e-05  1.9159002787332471e-01 -5.1664926335712007e-04 -8.5556777019732909e-04  1.9178478649706643e-01 3.2234994682970127e-04 8.10813334654054