<?xml version="1.0"?>
<VTKFile type="UnstructuredGrid"  version="0.1"  >
<UnstructuredGrid>
<Piece  NumberOfPoints="539" NumberOfCells="2160">
<Points>
<DataArray  type="Float64"  NumberOfComponents="3"  format="ascii">0 0.2 0.2  0.1 0.2 0.2  0.1 0.3 0.2  0.1 0.3 0.3  0.1 0.2 0.3  0 0.2 0.3  0 0.3 0.2  0 0.3 0.3  0.2 0.2 0.2  0.2 0.3 0.2  0.2 0.3 0.3  0.2 0.2 0.3  0.3 0.2 0.2  0.3 0.3 0.2  0.3 0.3 0.3  0.3 0.2 0.3  0.4 0.2 0.2  0.4 0.3 0.2  0.4 0.3 0.3  0.4 0.2 0.3  0.5 0.2 0.2  0.5 0.3 0.2  0.5 0.3 0.3  0.5 0.2 0.3  0.6 0.2 0.2  0.6 0.3 0.2  0.6 0.3 0.3  0.6 0.2 0.3  0.7 0.2 0.2  0.7 0.3 0.2  0.7 0.3 0.3  0.7 0.2 0.3  0.8 0.2 0.2  0.8 0.3 0.2  0.8 0.3 0.3  0.8 0.2 0.3  0.9 0.2 0.2  0.9 0.3 0.2  0.9 0.3 0.3  0.9 0.2 0.3  1 0.2 0.2  1 0.3 0.2  1 0.3 0.3  1 0.2 0.3  0.1 0.4 0.2  0.1 0.4 0.3  0 0.4 0.2  0 0.4 0.3  0.2 0.4 0.2  0.2 0.4 0.3  0.3 0.4 0.2  0.3 0.4 0.3  0.4 0.4 0.2  0.4 0.4 0.3  0.5 0.4 0.2  0.5 0.4 0.3  0.6 0.4 0.2  0.6 0.4 0.3  0.7 0.4 0.2  0.7 0.4 0.3  0.8 0.4 0.2  0.8 0.4 0.3  0.9 0.4 0.2  0.9 0.4 0.3  1 0.4 0.2  1 0.4 0.3  0.1 0.5 0.2  0.1 0.5 0.3  0 0.5 0.2  0 0.5 0.3  0.2 0.5 0.2  0.2 0.5 0.3  0.3 0.5 0.2  0.3 0.5 0.3  0.4 0.5 0.2  0.4 0.5 0.3  0.5 0.5 0.2  0.5 0.5 0.3  0.6 0.5 0.2  0.6 0.5 0.3  0.7 0.5 0.2  0.7 0.5 0.3  0.8 0.5 0.2  0.8 0.5 0.3  0.9 0.5 0.2  0.9 0.5 0.3  1 0.5 0.2  1 0.5 0.3  0.1 0.6 0.2  0.1 0.6 0.3  0 0.6 0.2  0 0.6 0.3  0.2 0.6 0.2  0.2 0.6 0.3  0.3 0.6 0.2  0.3 0.6 0.3  0.4 0.6 0.2  0.4 0.6 0.3  0.5 0.6 0.2  0.5 0.6 0.3  0.6 0.6 0.2  0.6 0.6 0.3  0.7 0.6 0.2  0.7 0.6 0.3  0.8 0.6 0.2  0.8 0.6 0.3  0.9 0.6 0.2  0.9 0.6 0.3  1 0.6 0.2  1 0.6 0.3  0.1 0.7 0.2  0.1 0.7 0.3  0 0.7 0.2  0 0.7 0.3  0.2 0.7 0.2  0.2 0.7 0.3  0.3 0.7 0.2  0.3 0.7 0.3  0.4 0.7 0.2  0.4 0.7 0.3  0.5 0.7 0.2  0.5 0.7 0.3  0.6 0.7 0.2  0.6 0.7 0.3  0.7 0.7 0.2  0.7 0.7 0.3  0.8 0.7 0.2  0.8 0.7 0.3  0.9 0.7 0.2  0.9 0.7 0.3  1 0.7 0.2  1 0.7 0.3  0.1 0.8 0.2  0.1 0.8 0.3  0 0.8 0.2  0 0.8 0.3  0.2 0.8 0.2  0.2 0.8 0.3  0.3 0.8 0.2  0.3 0.8 0.3  0.4 0.8 0.2  0.4 0.8 0.3  0.5 0.8 0.2  0.5 0.8 0.3  0.6 0.8 0.2  0.6 0.8 0.3  0.7 0.8 0.2  0.7 0.8 0.3  0.8 0.8 0.2  0.8 0.8 0.3  0.9 0.8 0.2  0.9 0.8 0.3  1 0.8 0.2  1 0.8 0.3  0.1 0.3 0.4  0.1 0.2 0.4  0 0.2 0.4  0 0.3 0.4  0.2 0.3 0.4  0.2 0.2 0.4  0.3 0.3 0.4  0.3 0.2 0.4  0.4 0.3 0.4  0.4 0.2 0.4  0.5 0.3 0.4  0.5 0.2 0.4  0.6 0.3 0.4  0.6 0.2 0.4  0.7 0.3 0.4  0.7 0.2 0.4  0.8 0.3 0.4  0.8 0.2 0.4  0.9 0.3 0.4  0.9 0.2 0.4  1 0.3 0.4  1 0.2 0.4  0.1 0.4 0.4  0 0.4 0.4  0.2 0.4 0.4  0.3 0.4 0.4  0.4 0.4 0.4  0.5 0.4 0.4  0.6 0.4 0.4  0.7 0.4 0.4  0.8 0.4 0.4  0.9 0.4 0.4  1 0.4 0.4  0.1 0.5 0.4  0 0.5 0.4  0.2 0.5 0.4  0.3 0.5 0.4  0.4 0.5 0.4  0.5 0.5 0.4  0.6 0.5 0.4  0.7 0.5 0.4  0.8 0.5 0.4  0.9 0.5 0.4  1 0.5 0.4  0.1 0.6 0.4  0 0.6 0.4  0.2 0.6 0.4  0.3 0.6 0.4  0.4 0.6 0.4  0.5 0.6 0.4  0.6 0.6 0.4  0.7 0.6 0.4  0.8 0.6 0.4  0.9 0.6 0.4  1 0.6 0.4  0.1 0.7 0.4  0 0.7 0.4  0.2 0.7 0.4  0.3 0.7 0.4  0.4 0.7 0.4  0.5 0.7 0.4  0.6 0.7 0.4  0.7 0.7 0.4  0.8 0.7 0.4  0.9 0.7 0.4  1 0.7 0.4  0.1 0.8 0.4  0 0.8 0.4  0.2 0.8 0.4  0.3 0.8 0.4  0.4 0.8 0.4  0.5 0.8 0.4  0.6 0.8 0.4  0.7 0.8 0.4  0.8 0.8 0.4  0.9 0.8 0.4  1 0.8 0.4  0.1 0.3 0.5  0.1 0.2 0.5  0 0.2 0.5  0 0.3 0.5  0.2 0.3 0.5  0.2 0.2 0.5  0.3 0.3 0.5  0.3 0.2 0.5  0.4 0.3 0.5  0.4 0.2 0.5  0.5 0.3 0.5  0.5 0.2 0.5  0.6 0.3 0.5  0.6 0.2 0.5  0.7 0.3 0.5  0.7 0.2 0.5  0.8 0.3 0.5  0.8 0.2 0.5  0.9 0.3 0.5  0.9 0.2 0.5  1 0.3 0.5  1 0.2 0.5  0.1 0.4 0.5  0 0.4 0.5  0.2 0.4 0.5  0.3 0.4 0.5  0.4 0.4 0.5  0.5 0.4 0.5  0.6 0.4 0.5  0.7 0.4 0.5  0.8 0.4 0.5  0.9 0.4 0.5  1 0.4 0.5  0.1 0.5 0.5  0 0.5 0.5  0.2 0.5 0.5  0.3 0.5 0.5  0.4 0.5 0.5  0.5 0.5 0.5  0.6 0.5 0.5  0.7 0.5 0.5  0.8 0.5 0.5  0.9 0.5 0.5  1 0.5 0.5  0.1 0.6 0.5  0 0.6 0.5  0.2 0.6 0.5  0.3 0.6 0.5  0.4 0.6 0.5  0.5 0.6 0.5  0.6 0.6 0.5  0.7 0.6 0.5  0.8 0.6 0.5  0.9 0.6 0.5  1 0.6 0.5  0.1 0.7 0.5  0 0.7 0.5  0.2 0.7 0.5  0.3 0.7 0.5  0.4 0.7 0.5  0.5 0.7 0.5  0.6 0.7 0.5  0.7 0.7 0.5  0.8 0.7 0.5  0.9 0.7 0.5  1 0.7 0.5  0.1 0.8 0.5  0 0.8 0.5  0.2 0.8 0.5  0.3 0.8 0.5  0.4 0.8 0.5  0.5 0.8 0.5  0.6 0.8 0.5  0.7 0.8 0.5  0.8 0.8 0.5  0.9 0.8 0.5  1 0.8 0.5  0.1 0.3 0.6  0.1 0.2 0.6  0 0.2 0.6  0 0.3 0.6  0.2 0.3 0.6  0.2 0.2 0.6  0.3 0.3 0.6  0.3 0.2 0.6  0.4 0.3 0.6  0.4 0.2 0.6  0.5 0.3 0.6  0.5 0.2 0.6  0.6 0.3 0.6  0.6 0.2 0.6  0.7 0.3 0.6  0.7 0.2 0.6  0.8 0.3 0.6  0.8 0.2 0.6  0.9 0.3 0.6  0.9 0.2 0.6  1 0.3 0.6  1 0.2 0.6  0.1 0.4 0.6  0 0.4 0.6  0.2 0.4 0.6  0.3 0.4 0.6  0.4 0.4 0.6  0.5 0.4 0.6  0.6 0.4 0.6  0.7 0.4 0.6  0.8 0.4 0.6  0.9 0.4 0.6  1 0.4 0.6  0.1 0.5 0.6  0 0.5 0.6  0.2 0.5 0.6  0.3 0.5 0.6  0.4 0.5 0.6  0.5 0.5 0.6  0.6 0.5 0.6  0.7 0.5 0.6  0.8 0.5 0.6  0.9 0.5 0.6  1 0.5 0.6  0.1 0.6 0.6  0 0.6 0.6  0.2 0.6 0.6  0.3 0.6 0.6  0.4 0.6 0.6  0.5 0.6 0.6  0.6 0.6 0.6  0.7 0.6 0.6  0.8 0.6 0.6  0.9 0.6 0.6  1 0.6 0.6  0.1 0.7 0.6  0 0.7 0.6  0.2 0.7 0.6  0.3 0.7 0.6  0.4 0.7 0.6  0.5 0.7 0.6  0.6 0.7 0.6  0.7 0.7 0.6  0.8 0.7 0.6  0.9 0.7 0.6  1 0.7 0.6  0.1 0.8 0.6  0 0.8 0.6  0.2 0.8 0.6  0.3 0.8 0.6  0.4 0.8 0.6  0.5 0.8 0.6  0.6 0.8 0.6  0.7 0.8 0.6  0.8 0.8 0.6  0.9 0.8 0.6  1 0.8 0.6  0.1 0.3 0.7  0.1 0.2 0.7  0 0.2 0.7  0 0.3 0.7  0.2 0.3 0.7  0.2 0.2 0.7  0.3 0.3 0.7  0.3 0.2 0.7  0.4 0.3 0.7  0.4 0.2 0.7  0.5 0.3 0.7  0.5 0.2 0.7  0.6 0.3 0.7  0.6 0.2 0.7  0.7 0.3 0.7  0.7 0.2 0.7  0.8 0.3 0.7  0.8 0.2 0.7  0.9 0.3 0.7  0.9 0.2 0.7  1 0.3 0.7  1 0.2 0.7  0.1 0.4 0.7  0 0.4 0.7  0.2 0.4 0.7  0.3 0.4 0.7  0.4 0.4 0.7  0.5 0.4 0.7  0.6 0.4 0.7  0.7 0.4 0.7  0.8 0.4 0.7  0.9 0.4 0.7  1 0.4 0.7  0.1 0.5 0.7  0 0.5 0.7  0.2 0.5 0.7  0.3 0.5 0.7  0.4 0.5 0.7  0.5 0.5 0.7  0.6 0.5 0.7  0.7 0.5 0.7  0.8 0.5 0.7  0.9 0.5 0.7  1 0.5 0.7  0.1 0.6 0.7  0 0.6 0.7  0.2 0.6 0.7  0.3 0.6 0.7  0.4 0.6 0.7  0.5 0.6 0.7  0.6 0.6 0.7  0.7 0.6 0.7  0.8 0.6 0.7  0.9 0.6 0.7  1 0.6 0.7  0.1 0.7 0.7  0 0.7 0.7  0.2 0.7 0.7  0.3 0.7 0.7  0.4 0.7 0.7  0.5 0.7 0.7  0.6 0.7 0.7  0.7 0.7 0.7  0.8 0.7 0.7  0.9 0.7 0.7  1 0.7 0.7  0.1 0.8 0.7  0 0.8 0.7  0.2 0.8 0.7  0.3 0.8 0.7  0.4 0.8 0.7  0.5 0.8 0.7  0.6 0.8 0.7  0.7 0.8 0.7  0.8 0.8 0.7  0.9 0.8 0.7  1 0.8 0.7  0.1 0.3 0.8  0.1 0.2 0.8  0 0.2 0.8  0 0.3 0.8  0.2 0.3 0.8  0.2 0.2 0.8  0.3 0.3 0.8  0.3 0.2 0.8  0.4 0.3 0.8  0.4 0.2 0.8  0.5 0.3 0.8  0.5 0.2 0.8  0.6 0.3 0.8  0.6 0.2 0.8  0.7 0.3 0.8  0.7 0.2 0.8  0.8 0.3 0.8  0.8 0.2 0.8  0.9 0.3 0.8  0.9 0.2 0.8  1 0.3 0.8  1 0.2 0.8  0.1 0.4 0.8  0 0.4 0.8  0.2 0.4 0.8  0.3 0.4 0.8  0.4 0.4 0.8  0.5 0.4 0.8  0.6 0.4 0.8  0.7 0.4 0.8  0.8 0.4 0.8  0.9 0.4 0.8  1 0.4 0.8  0.1 0.5 0.8  0 0.5 0.8  0.2 0.5 0.8  0.3 0.5 0.8  0.4 0.5 0.8  0.5 0.5 0.8  0.6 0.5 0.8  0.7 0.5 0.8  0.8 0.5 0.8  0.9 0.5 0.8  1 0.5 0.8  0.1 0.6 0.8  0 0.6 0.8  0.2 0.6 0.8  0.3 0.6 0.8  0.4 0.6 0.8  0.5 0.6 0.8  0.6 0.6 0.8  0.7 0.6 0.8  0.8 0.6 0.8  0.9 0.6 0.8  1 0.6 0.8  0.1 0.7 0.8  0 0.7 0.8  0.2 0.7 0.8  0.3 0.7 0.8  0.4 0.7 0.8  0.5 0.7 0.8  0.6 0.7 0.8  0.7 0.7 0.8  0.8 0.7 0.8  0.9 0.7 0.8  1 0.7 0.8  0.1 0.8 0.8  0 0.8 0.8  0.2 0.8 0.8  0.3 0.8 0.8  0.4 0.8 0.8  0.5 0.8 0.8  0.6 0.8 0.8  0.7 0.8 0.8  0.8 0.8 0.8  0.9 0.8 0.8  1 0.8 0.8  </DataArray>
</Points>
<Cells>
[...]
<PointData  Vectors="f_23"> 
<DataArray  type="Float64"  Name="f_23"  NumberOfComponents="3" format="ascii">8.1149558884240406e-04 8.3865971314479854e-05 -5.6097297310056491e-06  7.5397890575839470e-04 1.0535733739465673e-04 -5.3541149475777047e-06  7.8880427658210123e-04 7.8561709013776369e-05 -5.3559610271857690e-06  6.5550942509544324e-02 1.4855582870833896e-04 3.5757561490874030e-04  7.7017567209197973e-04 1.0006585381414520e-04 4.4938273411431215e-06  8.1279994247080377e-04 7.0236835056397643e-05 5.8534299846441669e-06  8.4240287192990666e-04 6.0713475214579520e-05 -1.2428626832882521e-05  6.5420208069445679e-02 2.2024766798505257e-04 6.4352893715474192e-04  6.5046751463773754e-04 1.5634355891805288e-04 1.1243428091960508e-06  6.8996522172235419e-04 1.2289398390126439e-04 -2.3904650307500492e-06  6.5035611946977490e-02 5.6636775125879821e-05 2.4927741373773180e-04  6.8805223925940361e-04 1.5527519576497161e-04 1.6754358639629302e-05  5.0441759266472877e-04 1.9251699649318893e-04 1.4145613587168578e-05  5.5178864477421774e-04 1.5314185899906866e-04 1.1499353605301357e-05  6.4994532472098687e-02 -1.7912311973203060e-05 2.9998346624291941e-04  5.6256781830581453e-04 2.0648948335563142e-04 3.8250956040470729e-05  2.9735128628990455e-04 2.1140597756528717e-04 4.1080826542100713e-05  3.5380173706227623e-04 1.7017879845331583e-04 3.7643585782215247e-05  6.4832810640344518e-02 -9.7248121130462121e-05 4.3671951029525372e-04  3.8240351841409243e-04 2.4787694246466481e-04 7.6049528180360414e-05  7.1225130496493221e-06 2.0470268749419611e-04 9.0635610088662873e-05  7.2894358525459819e-05 1.6892094001112878e-04 8.2011562647076294e-05  6.4560746368842070e-02 -1.9601595267741833e-04 6.1638083113708670e-04  1.1972643409245660e-04 2.6794871258201304e-04 1.4044803680724656e-04  -3.7195666621245283e-04 1.6701504904478395e-04 1.5546001500498625e-04  -3.0012137305363896e-04 1.4464721994878125e-04 1.3804547813901183e-04  6.4245118771974016e-02 -2.9616663243367796e-04 7.5951649961020977e-04  -2.4953268048169498e-04 2.4754022282558413e-04 2.3150554884182069e-04  -7.8609197368584489e-04 1.0635372418349562e-04 1.8592324249897479e-04  -7.2214134528250120e-04 9.9675030789871206e-05 1.6663058861690391e-04  6.4091039882482187e-02 -3.6521846100165297e-04 6.8825508732914557e-04  -6.9907194962138511e-04 1.7816375386232815e-04 3.0143062940446517e-04  -1.0862631268782643e-03 4.3992178902807894e-05 1.2873174910015356e-04  -1.0597474550924021e-03 4.9333557794693908e-05 1.2025179841807525e-04  6.4560466080107973e-02 -3.7168875034871991e-04 1.2578553812722269e-04  -1.0940735804344179e-03 8.0679489003759527e-05 2.3059947416619403e-04  -1.1900274987448945e-03 1.5224086228263511e-05 4.1290868398483222e-05  -1.1934668539286719e-03 1.5015258290818673e-05 5.8255644873719668e-05  6.6014878545966049e-02 -2.2422137693576088e-04 -5.7895342178175427e-04  -1.2648269617875651e-03 3.4345125961054186e-05 8.1948466538462385e-05  -1.2249342512887314e-03 2.0187379616891980e-05 8.5596770915212023e-05  -1.2101748966743360e-03 8.9750626183952980e-06 7.8224481405238781e-05  6.7806321211611523e-02 2.2959884875820604e-04 5.8454409191850340e-04  -1.2915931931045007e-03 1.7182936260797859e-05 1.1303929818333596e-04  8.2995302981141530e-04 4.7338364213806521e-05 -7.4034393326798092e-06  1.0916077013637890e-01 -9.0904693116001872e-05 4.1395819115815525e-04  8.8762449130621441e-04 3.5004320168922386e-05 -1.2463832683350197e-05  1.0871074177411845e-01 2.6903154994890383e-04 7.7060067121002590e-04  7.1814014451454847e-04 7.4761103549366413e-05 -1.9780375903939730e-06  1.0872280341502000e-01 -8.8776727153531715e-05 2.6832751429806747e-04  5.7203014976788056e-04 9.3839840079690037e-05 1.5197517746053397e-05  1.0867061579778220e-01 -1.2435435241794646e-04 2.7572663491606786e-04  3.6274129304973517e-04 1.0275245777613692e-04 4.6579918667715869e-05  1.0855921327799530e-01 -1.8296870181652331e-04 3.4948213481069979e-04  6.7660990158469389e-05 9.9176344936966509e-05 9.4703140876217217e-05  1.0839322886494261e-01 -2.5580323636650425e-04 4.1492352784131318e-04  -3.1978703006109774e-04 8.3411747165066936e-05 1.4919290531025599e-04  1.0828719482574076e-01 -3.0745728537834375e-04 3.8157706187119656e-04  -7.5301171118718265e-04 5.9919926506733686e-05 1.7190753924434452e-04  1.0846540664272282e-01 -2.7619104888911315e-04 1.1231106362853930e-04  -1.0923830243436768e-03 3.4533169994782048e-05 1.2179496912395151e-04  1.0922013934909595e-01 -1.1545473697820277e-04 -4.8752876726723535e-04  -1.2146443522551022e-03 1.0621439961372327e-05 6.1432286342544474e-05  1.1061132127762485e-01 1.6626437416538374e-04 -8.8455508417041324e-04  -1.2206503814879892e-03 4.6578354765247200e-06 8.3256465913944419e-05  1.1246060650861928e-01 1.4571195626749905e-04 4.9098190839404459e-04  8.5318352072777034e-04 2.2109247574416434e-05 -5.5662275238301399e-06  1.2144568834285446e-01 -1.0083295279342025e-04 3.9425133005796770e-04  9.1301474495254428e-04 1.3082895925273068e-05 -9.3158908062204394e-06  1.2101270249628511e-01 1.7386209529537987e-04 7.8987703660492094e-04  7.3445484344076086e-04 3.6374747852283424e-05 -1.5449244927342642e-08  1.2104046078923453e-01 -1.3259138361101117e-04 2.3406650138311098e-04  5.8080262941051031e-04 4.5647495274668762e-05 1.7989570393025116e-05  1.2097708104936253e-01 -1.4297082052664570e-04 2.2973700921325945e-04  3.6193971045088468e-04 4.6740288034263090e-05 5.0120936306257950e-05  1.2085284357121769e-01 -1.6624476592012993e-04 2.7915947849595289e-04  5.8283269025504982e-05 3.8363824111805773e-05 9.7228321233732443e-05  1.2070702699641074e-01 -1.9534440095279789e-04 3.0333351174734733e-04  -3.3332448694498007e-04 2.4796793394281989e-05 1.4818098464945231e-04  1.2068374767780737e-01 -1.9735029260979910e-04 2.1584906899518072e-04  -7.6669609752671910e-04 1.5925218005800777e-05 1.6817193053019741e-04  1.2101997868863359e-01 -1.1816896728543554e-04 -9.6287002317734514e-05  -1.1059510725055627e-03 1.6216315636123228e-05 1.1928152266686386e-04  1.2193214545725375e-01 7.5390303488742690e-05 -6.5412825684080668e-04  -1.2263960330019714e-03 4.6744599598416374e-06 6.0909863760413477e-05  1.2330007575977558e-01 3.0595798921173275e-04 -8.6282259329391981e-04  -1.2322086170713086e-03 1.0632586269787751e-05 8.2793315946028947e-05  1.2507633986100911e-01 2.1588268593571933e-04 3.4934880420021134e-04  8.6472116030163757e-04 5.5912823120764087e-06 -2.1993847539954498e-06  1.0922698454547201e-01 -1.1782367345262892e-04 3.4283764541309230e-04  9.2268633309673166e-04 -3.8062940925343296e-06 -4.3302261275725080e-06  1.0890482669464109e-01 7.4849643338093235e-05 7.4286382854048011e-04  7.4511113421356421e-04 1.1940052316118982e-05 2.4122077535025252e-06  1.0883544625058057e-01 -1.2768036510993236e-04 2.0466797805244590e-04  5.8621052383948534e-04 1.7728647756153360e-05 1.8184697817936560e-05  1.0876260975429224e-01 -1.1275970505160467e-04 2.0037597780978261e-04  3.5951070918067990e-04 1.7383242932034836e-05 4.7002859723863831e-05  1.0862820871089937e-01 -1.0378236274576592e-04 2.4094530508319377e-04  5.0263294049802916e-05 9.0828086695235702e-06 8.8173489670945079e-05  1.0848007140132242e-01 -9.5934807030919150e-05 2.5339120377267327e-04  -3.3917497161336466e-04 -2.4136769442552679e-06 1.3111347460441664e-04  1.0847203286286364e-01 -6.8203624929676499e-05 1.5919825934915919e-04  -7.6383449044690631e-04 -5.4165851493314730e-06 1.4747345370486327e-04  1.0883090771672685e-01 9.6957457113223558e-06 -1.3406789462772764e-04  -1.1011037988047482e-03 7.6442280675209200e-06 1.0506591522680244e-04  1.0971766889748596e-01 1.5130604441061205e-04 -5.9529901552119466e-04  -1.2312173372708642e-03 2.7332648274699061e-06 5.3642903972797651e-05  1.1094766700160864e-01 2.5407841954624353e-04 -6.8145246355346811e-04  -1.2472858846198543e-03 2.1193033934942115e-05 7.1873411680235306e-05  1.1238738327445727e-01 1.9797479223577892e-04 3.5545929249028858e-04  8.7572579181956418e-04 -5.9257245673437215e-06 -7.0416114735238599e-07  6.6357965069982927e-02 -9.7806575847307316e-05 2.7264736596271813e-04  9.2755761406403624e-04 -7.6706683633749372e-06 3.2351568695252687e-07  6.6661117503213629e-02 2.7005866247126664e-04 6.2007000073280077e-04  7.6340965256559232e-04 -1.8465605006273974e-06 1.0966418903488811e-06  6.6026389010168718e-02 -6.6105279357679599e-05 1.6203065519096999e-04  6.0534263593588005e-04 7.2240136647520960e-06 1.0653576041694184e-05  6.5986040163150336e-02 -7.2321881170564369e-06 1.5982329683559857e-04  3.7591959799775651e-04 1.2936757441871969e-05 3.2988163641590611e-05  6.5893664418693459e-02 4.2292862066710579e-05 1.8991907492825293e-04  6.3846606873804368e-05 1.1448210760030802e-05 6.6631629315198714e-05  6.5772511157471736e-02 9.2522569890214480e-05 1.9646717876135847e-04  -3.2578885132789509e-04 5.6088530559399189e-06 1.0187960808073189e-04  6.5732474441787786e-02 1.4885623589132459e-04 1.1999250183023766e-04  -7.4671495334508776e-04 3.8253868934684046e-06 1.1663962616636738e-04  6.5941656176055907e-02 2.1292314609422405e-04 -9.9083643083799916e-05  -1.0844540792784739e-03 1.3113674527391715e-05 8.5833733227005373e-05  6.6544873284956327e-02 2.8408353211760673e-04 -4.0832813669977347e-04  -1.2316377215001080e-03 1.7077829067940510e-05 4.1656978243542123e-05  6.7523747418487490e-02 3.6307892291491850e-04 -4.3395047002026761e-04  -1.2608470479723703e-03 2.7425058901557706e-05 5.1567271118950488e-05  6.8121811780965796e-02 1.5036512086126413e-04 4.8163037894775597e-04  9.1214046572350705e-04 -6.6218984682797386e-06 -5.5100759423014583e-06  9.2844911682970327e-04 -3.7198244076130457e-06 -1.3458254171963290e-06  9.6049232505191276e-04 -1.4724816567240452e-05 4.1005211014278779e-08  9.6060100694565515e-04 -1.0844048120504843e-05 9.4194239782078921e-07  8.1542998911098008e-04 -2.1640478559919290e-06 -1.0244415530527229e-05  8.6077289236490809e-04 -6.7619429351012315e-06 -1.5736567639144848e-06  6.8084752231580893e-04 6.2510591154236090e-06 -9.3209309237584634e-06  7.4229933906757033e-04 2.7367934913640666e-06 4.6710514437910155e-06  4.8371354749693677e-04 1.4524720813338737e-05 -4.8847192395480041e-06  5.7206219406051638e-04 1.1215044245465785e-05 2.1862416356259703e-05  2.0505502386562320e-04 1.6501724454797811e-05 9.1106950726805230e-06  3.2883482977168926e-04 1.3111149471382722e-05 5.3023598947979718e-05  -1.6060559569178786e-04 1.2919760945786865e-05 3.1558475756657145e-05  -1.7798984371142521e-06 8.2860036185675563e-06 9.4475533851366521e-05  -5.8975990524589975e-04 9.6338567909986742e-06 5.4311719307272073e-05  -4.1393115499744303e-04 3.1302673198883305e-06 1.3109639699080249e-04  -9.9283177665676603e-04 8.7813645037442345e-06 6.1556675417865495e-05  -8.4865475529095403e-04 7.1570075406204466e-06 1.3527806879862651e-04  -1.2076003928708746e-03 1.3048754905048894e-05 4.1967296665243423e-05  -1.1477507214936893e-03 1.4811140679640486e-05 9.1691198809089214e-05  -1.2552719941519919e-03 2.6914533665494364e-05 3.1000417386169397e-05  -1.2499667066056301e-03 3.3391145524895295e-05 6.0785266115959789e-05  1.0926438902979060e-01 1.4781733501781382e-04 1.7845682087056920e-04  7.8678632557408151e-04 9.4331314929222568e-05 1.9899293917033825e-05  8.2497388041447961e-04 6.4723550189884602e-05 1.4223754767771358e-05  1.0882138180625252e-01 2.1859592877677720e-04 8.1391298601562057e-04  1.0892062550819956e-01 7.6969913978338719e-05 1.6764421220970762e-04  7.1726650473816092e-04 1.5560402814082831e-04 4.3579426275844793e-05  1.0892788866135281e-01 -9.1589085868482968e-06 2.9137979252097992e-04  6.1002379621983899e-04 2.2265336478016415e-04 8.3259199184091120e-05  1.0888087861749596e-01 -9.8865661455608151e-05 4.9903587512083473e-04  4.4974436526141521e-04 2.9765937450571586e-04 1.4589472102238826e-04  1.0871141956362193e-01 -2.2746365500667554e-04 7.7112779655313707e-04  2.0115586409049700e-04 3.7115973246749126e-04 2.4113372592145550e-04  1.0839572143234792e-01 -4.0084297676434085e-04 1.0297507368499683e-03  -1.7946979952843296e-04 4.0542887857696844e-04 3.8216413526238061e-04  1.0799176238295558e-01 -5.2512068070710246e-04 1.0149221358037787e-03  -6.9423674426621743e-04 3.4467836281337012e-04 5.4673190906849014e-04  1.0817016658931572e-01 -5.7434504000776173e-04 2.8848910070587019e-04  -1.1853445634581879e-03 1.8442615863559025e-04 5.1333327254694469e-04  1.1014481983976958e-01 -4.6649376436646504e-04 -1.0262525677569307e-03  -1.4473159797095290e-03 7.4819416183526691e-05 1.5588838130335041e-04  1.1199919270197325e-01 3.2583200581262335e-04 1.2629469414278140e-03  -1.5342022389443471e-03 4.0623716013652795e-05 2.0213203741197596e-04  1.7822265070401297e-01 -1.2559632696004474e-04 2.2920143225282192e-04  1.7799179622069308e-01 2.8377218414259045e-04 9.6867002795912355e-04  1.7797185891255857e-01 -8.7988540291644552e-05 2.1039510865377580e-04  1.7789062745524559e-01 -1.3884335361996318e-04 2.9861561059793632e-04  1.7785764014291028e-01 -2.3057204446550855e-04 4.3178896918094129e-04  1.7778662740987144e-01 -3.6595718037800505e-04 5.3378209225957260e-04  1.7771504177066930e-01 -5.1383927082127121e-04 4.7447418166232782e-04  1.7785180109409085e-01 -5.4486566302044536e-04 2.2754407952687889e-05  1.7871756213383477e-01 -2.7668339103406809e-04 -1.0576087366790186e-03  1.8068484551191738e-01 3.1673705284675560e-04 -2.0666794433645492e-03  1.8271233788123500e-01 1.6893044304001589e-04 3.7407854156274004e-04  1.9829516084006818e-01 -9.3458959931114928e-05 2.2385806739433917e-04  1.9815232071833644e-01 1.9405372921410324e-04 9.8994647367498293e-04  1.9806392832420253e-01 -1.2509694385478954e-04 1.9760394119040691e-04  1.9796031673281567e-01 -1.4489640045396891e-04 2.6309138777301180e-04  1.9790180603952831e-01 -1.9161484154840014e-04 3.5604846897278647e-04  1.9783879566635157e-01 -2.6424221228129853e-04 3.8721851228554492e-04  1.9785432960992422e-01 -3.2270989198569783e-04 2.2946055021213124e-04  1.9822893423443363e-01 -2.6105240435386827e-04 -3.0840734869419452e-04  1.9946376693635470e-01 6.0461721833965826e-05 -1.3736538381867100e-03  2.0156634766120915e-01 6.1019127233096816e-04 -2.1465358403638521e-03  2.0349231804442069e-01 3.9502445468517515e-04 -1.2935910523456708e-04  1.7824840543974366e-01 -8.6712255450129073e-05 1.7585505566591027e-04  1.7825644044111652e-01 1.0752587495198182e-04 9.1603635006313946e-04  1.7800805164554356e-01 -1.0908621007077649e-04 1.6503348872105934e-04  1.7789492501161791e-01 -1.0164587983061638e-04 2.2426302409269086e-04  1.7781420040054194e-01 -1.0780780216229140e-04 3.0037821653157779e-04  1.7773059951004683e-01 -1.2919322847382205e-04 3.1346640953754286e-04  1.7774681807441758e-01 -1.3582027316676512e-04 1.4962625413177460e-04  1.7817094312191092e-01 -5.7368275695373652e-05 -3.4715750278668968e-04  1.7943256950467323e-01 1.8863004762841956e-04 -1.2671715486877108e-03  1.8138012156397151e-01 5.1194791325477173e-04 -1.7585602327656828e-03  1.8273020242258309e-01 3.5234085017047133e-04 -1.1059842145488929e-04  1.0928638069308652e-01 -3.1724937251749874e-05 7.6267131061227470e-05  1.0995124869471108e-01 3.2915681546429737e-04 7.2273068554025205e-04  1.0907901590527999e-01 -3.7091824383606709e-05 9.2657295665348992e-05  1.0900585598825713e-01 8.5069232025768497e-06 1.5173232763180449e-04  1.0895784045979738e-01 5.0538454223557533e-05 2.1323397676364610e-04  1.0889409366047852e-01 8.3278662916074043e-05 2.2664572577522736e-04  1.0886818477538966e-01 1.1654590975354805e-04 1.0595223574803743e-04  1.0909788694651662e-01 1.7348750620483583e-04 -2.6660767640592327e-04  1.0995450604881485e-01 2.8995204311654560e-04 -8.8164099632364039e-04  1.1148292134381603e-01 4.9038022382551845e-04 -1.0563626814654309e-03  1.1163246920138542e-01 2.7837213630966401e-04 3.3117088664805314e-04  9.3437633233021922e-04 -1.1258867652926175e-06 4.7064045709320909e-06  9.6308290382614314e-04 -5.0256761391640330e-06 5.2026236038607423e-06  8.7059484470060789e-04 -2.1105926829022812e-06 1.3333417851609226e-05  7.6585069948187725e-04 4.3258096788259451e-06 3.5643598435414657e-05  6.1455397554593418e-04 7.9874267688551319e-06 7.5884091235957381e-05  3.9177745542323368e-04 5.0234309086465986e-06 1.3933683601107820e-04  7.3112693278255849e-05 -6.1954172729228051e-06 2.2217164281397708e-04  -3.5570527429034700e-04 -1.9124112650786304e-05 2.9998578169651612e-04  -8.5221869629751137e-04 -2.0655352732183256e-05 3.2033949523862804e-04  -1.2241006266153992e-03 -1.0049405787010344e-05 2.3529001388532462e-04  -1.3415672794408683e-03 1.4471848757779753e-05 1.7512884916335851e-04  1.2164509758381441e-01 1.3090349800559523e-04 1.4079257643030490e-04  8.1227803348034170e-04 8.7353707685977109e-05 2.8481355269392393e-05  8.4491529865017502e-04 5.8728715117341250e-05 1.7253902316500681e-05  1.2122145844923937e-01 2.2158683201462347e-04 6.5486537363079636e-04  1.2139250498659533e-01 5.6848428644881066e-05 7.2491156901660509e-05  7.5976507530204859e-04 1.4921508572456591e-04 6.2167763179900735e-05  1.2148032513270780e-01 -2.6568914727319210e-05 1.6612692496857195e-04  6.8052662487694910e-04 2.2751665564838873e-04 1.1581858448860543e-04  1.2150693691680202e-01 -1.1714814396168331e-04 3.3274589429515563e-04  5.5669404444873510e-04 3.3678623012147060e-04 1.9740981638729596e-04  1.2139100644545131e-01 -2.6712583559400355e-04 5.7104471426932201e-04  3.4595518531499529e-04 4.8870162831914955e-04 3.1308459567113973e-04  1.2099620487560110e-01 -5.6478704422250562e-04 8.7679946372998512e-04  -3.9501207623065835e-05 6.5694540155258223e-04 4.7538736435283937e-04  1.2025538490437904e-01 -1.0255707563676150e-03 1.1015851389214997e-03  -6.9197773813905019e-04 7.2363467379284532e-04 7.3194663247211410e-04  1.1972149288344629e-01 -1.0420428241384924e-03 7.6978385568674901e-04  -1.3434106796829327e-03 5.3096482955073971e-04 1.1095082628303364e-03  1.2209541721553457e-01 -1.1239688592817665e-03 -8.3146786589648127e-04  -1.7074220634235781e-03 2.3349693545796690e-04 4.0539292519662702e-04  1.2514869587807304e-01 -6.8031788082958239e-04 3.2467188481248347e-03  -1.9179469325551956e-03 1.3775409120133042e-04 2.7915452180435693e-04  1.9839837326379459e-01 -1.5050495034753085e-04 2.1670561419557242e-04  1.9824137861550736e-01 2.9062069935115929e-04 7.9810620179183935e-04  1.9822348100501067e-01 -1.0350282271763725e-04 1.1920911148102988e-04  1.9818356600489800e-01 -1.6579824200927128e-04 1.9525060106980645e-04  1.9816450798227558e-01 -2.8106565314672089e-04 3.0705328672155828e-04  1.9806063585681052e-01 -4.7807116930674451e-04 3.7497949144890284e-04  1.9781155778894233e-01 -7.8557274982126964e-04 2.7087011973442614e-04  1.9756554633761220e-01 -1.0699820045163911e-03 -2.4856561243123058e-04  1.9820718621926031e-01 -7.9713505711898926e-04 -1.4451927505576894e-03  2.0067713709164853e-01 3.7398406915325967e-04 -3.7235984492593331e-03  2.0327170946074269e-01 -3.9218155225139632e-04 5.4554163976756626e-04  2.2096660353601327e-01 -1.0042380594246314e-04 2.2702303963942566e-04  2.2090632601343801e-01 2.0961916840305525e-04 8.4352586946542145e-04  2.2079597568941503e-01 -1.2614338153249183e-04 1.2507984209189968e-04  2.2070916828050663e-01 -1.5945390480946424e-04 1.7930180788504414e-04  2.2065255951661442e-01 -2.3077658055956269e-04 2.4828072592553830e-04  2.2054313335577699e-01 -3.5050897289438189e-04 2.2852655660848256e-04  2.2036250132940619e-01 -4.8937247775987644e-04 -2.3816494823638485e-05  2.2034816502362159e-01 -4.9783110021528476e-04 -7.0809611675684623e-04  2.2153793041861961e-01 -6.0221452044892422e-05 -1.9848000569822567e-03  2.2450388429045487e-01 9.3567405992455821e-04 -4.1799954185738879e-03  2.2685750605210911e-01 2.9518334110226267e-04 -1.0025049917357098e-03  1.9841947405983235e-01 -6.8924379897938797e-05 1.9606364212535585e-04  1.9850447393917309e-01 1.4133108606062593e-04 8.0900171817719128e-04  1.9823512332770438e-01 -9.9239246093300174e-05 1.0789684927581161e-04  1.9813425510636529e-01 -1.0246978203652222e-04 1.5398746112442319e-04  1.9804863299069883e-01 -1.2946600051055179e-04 2.0613216330728695e-04  1.9791207677828132e-01 -1.8363404838201471e-04 1.6886450440056533e-0