<?xml version="1.0"?>
<VTKFile type="UnstructuredGrid"  version="0.1"  >
<UnstructuredGrid>
<Piece  NumberOfPoints="539" NumberOfCells="2160">
<Points>
<DataArray  type="Float64"  NumberOfComponents="3"  format="ascii">0 0.2 0.2  0.1 0.2 0.2  0.1 0.3 0.2  0.1 0.3 0.3  0.1 0.2 0.3  0 0.2 0.3  0 0.3 0.2  0 0.3 0.3  0.2 0.2 0.2  0.2 0.3 0.2  0.2 0.3 0.3  0.2 0.2 0.3  0.3 0.2 0.2  0.3 0.3 0.2  0.3 0.3 0.3  0.3 0.2 0.3  0.4 0.2 0.2  0.4 0.3 0.2  0.4 0.3 0.3  0.4 0.2 0.3  0.5 0.2 0.2  0.5 0.3 0.2  0.5 0.3 0.3  0.5 0.2 0.3  0.6 0.2 0.2  0.6 0.3 0.2  0.6 0.3 0.3  0.6 0.2 0.3  0.7 0.2 0.2  0.7 0.3 0.2  0.7 0.3 0.3  0.7 0.2 0.3  0.8 0.2 0.2  0.8 0.3 0.2  0.8 0.3 0.3  0.8 0.2 0.3  0.9 0.2 0.2  0.9 0.3 0.2  0.9 0.3 0.3  0.9 0.2 0.3  1 0.2 0.2  1 0.3 0.2  1 0.3 0.3  1 0.2 0.3  0.1 0.4 0.2  0.1 0.4 0.3  0 0.4 0.2  0 0.4 0.3  0.2 0.4 0.2  0.2 0.4 0.3  0.3 0.4 0.2  0.3 0.4 0.3  0.4 0.4 0.2  0.4 0.4 0.3  0.5 0.4 0.2  0.5 0.4 0.3  0.6 0.4 0.2  0.6 0.4 0.3  0.7 0.4 0.2  0.7 0.4 0.3  0.8 0.4 0.2  0.8 0.4 0.3  0.9 0.4 0.2  0.9 0.4 0.3  1 0.4 0.2  1 0.4 0.3  0.1 0.5 0.2  0.1 0.5 0.3  0 0.5 0.2  0 0.5 0.3  0.2 0.5 0.2  0.2 0.5 0.3  0.3 0.5 0.2  0.3 0.5 0.3  0.4 0.5 0.2  0.4 0.5 0.3  0.5 0.5 0.2  0.5 0.5 0.3  0.6 0.5 0.2  0.6 0.5 0.3  0.7 0.5 0.2  0.7 0.5 0.3  0.8 0.5 0.2  0.8 0.5 0.3  0.9 0.5 0.2  0.9 0.5 0.3  1 0.5 0.2  1 0.5 0.3  0.1 0.6 0.2  0.1 0.6 0.3  0 0.6 0.2  0 0.6 0.3  0.2 0.6 0.2  0.2 0.6 0.3  0.3 0.6 0.2  0.3 0.6 0.3  0.4 0.6 0.2  0.4 0.6 0.3  0.5 0.6 0.2  0.5 0.6 0.3  0.6 0.6 0.2  0.6 0.6 0.3  0.7 0.6 0.2  0.7 0.6 0.3  0.8 0.6 0.2  0.8 0.6 0.3  0.9 0.6 0.2  0.9 0.6 0.3  1 0.6 0.2  1 0.6 0.3  0.1 0.7 0.2  0.1 0.7 0.3  0 0.7 0.2  0 0.7 0.3  0.2 0.7 0.2  0.2 0.7 0.3  0.3 0.7 0.2  0.3 0.7 0.3  0.4 0.7 0.2  0.4 0.7 0.3  0.5 0.7 0.2  0.5 0.7 0.3  0.6 0.7 0.2  0.6 0.7 0.3  0.7 0.7 0.2  0.7 0.7 0.3  0.8 0.7 0.2  0.8 0.7 0.3  0.9 0.7 0.2  0.9 0.7 0.3  1 0.7 0.2  1 0.7 0.3  0.1 0.8 0.2  0.1 0.8 0.3  0 0.8 0.2  0 0.8 0.3  0.2 0.8 0.2  0.2 0.8 0.3  0.3 0.8 0.2  0.3 0.8 0.3  0.4 0.8 0.2  0.4 0.8 0.3  0.5 0.8 0.2  0.5 0.8 0.3  0.6 0.8 0.2  0.6 0.8 0.3  0.7 0.8 0.2  0.7 0.8 0.3  0.8 0.8 0.2  0.8 0.8 0.3  0.9 0.8 0.2  0.9 0.8 0.3  1 0.8 0.2  1 0.8 0.3  0.1 0.3 0.4  0.1 0.2 0.4  0 0.2 0.4  0 0.3 0.4  0.2 0.3 0.4  0.2 0.2 0.4  0.3 0.3 0.4  0.3 0.2 0.4  0.4 0.3 0.4  0.4 0.2 0.4  0.5 0.3 0.4  0.5 0.2 0.4  0.6 0.3 0.4  0.6 0.2 0.4  0.7 0.3 0.4  0.7 0.2 0.4  0.8 0.3 0.4  0.8 0.2 0.4  0.9 0.3 0.4  0.9 0.2 0.4  1 0.3 0.4  1 0.2 0.4  0.1 0.4 0.4  0 0.4 0.4  0.2 0.4 0.4  0.3 0.4 0.4  0.4 0.4 0.4  0.5 0.4 0.4  0.6 0.4 0.4  0.7 0.4 0.4  0.8 0.4 0.4  0.9 0.4 0.4  1 0.4 0.4  0.1 0.5 0.4  0 0.5 0.4  0.2 0.5 0.4  0.3 0.5 0.4  0.4 0.5 0.4  0.5 0.5 0.4  0.6 0.5 0.4  0.7 0.5 0.4  0.8 0.5 0.4  0.9 0.5 0.4  1 0.5 0.4  0.1 0.6 0.4  0 0.6 0.4  0.2 0.6 0.4  0.3 0.6 0.4  0.4 0.6 0.4  0.5 0.6 0.4  0.6 0.6 0.4  0.7 0.6 0.4  0.8 0.6 0.4  0.9 0.6 0.4  1 0.6 0.4  0.1 0.7 0.4  0 0.7 0.4  0.2 0.7 0.4  0.3 0.7 0.4  0.4 0.7 0.4  0.5 0.7 0.4  0.6 0.7 0.4  0.7 0.7 0.4  0.8 0.7 0.4  0.9 0.7 0.4  1 0.7 0.4  0.1 0.8 0.4  0 0.8 0.4  0.2 0.8 0.4  0.3 0.8 0.4  0.4 0.8 0.4  0.5 0.8 0.4  0.6 0.8 0.4  0.7 0.8 0.4  0.8 0.8 0.4  0.9 0.8 0.4  1 0.8 0.4  0.1 0.3 0.5  0.1 0.2 0.5  0 0.2 0.5  0 0.3 0.5  0.2 0.3 0.5  0.2 0.2 0.5  0.3 0.3 0.5  0.3 0.2 0.5  0.4 0.3 0.5  0.4 0.2 0.5  0.5 0.3 0.5  0.5 0.2 0.5  0.6 0.3 0.5  0.6 0.2 0.5  0.7 0.3 0.5  0.7 0.2 0.5  0.8 0.3 0.5  0.8 0.2 0.5  0.9 0.3 0.5  0.9 0.2 0.5  1 0.3 0.5  1 0.2 0.5  0.1 0.4 0.5  0 0.4 0.5  0.2 0.4 0.5  0.3 0.4 0.5  0.4 0.4 0.5  0.5 0.4 0.5  0.6 0.4 0.5  0.7 0.4 0.5  0.8 0.4 0.5  0.9 0.4 0.5  1 0.4 0.5  0.1 0.5 0.5  0 0.5 0.5  0.2 0.5 0.5  0.3 0.5 0.5  0.4 0.5 0.5  0.5 0.5 0.5  0.6 0.5 0.5  0.7 0.5 0.5  0.8 0.5 0.5  0.9 0.5 0.5  1 0.5 0.5  0.1 0.6 0.5  0 0.6 0.5  0.2 0.6 0.5  0.3 0.6 0.5  0.4 0.6 0.5  0.5 0.6 0.5  0.6 0.6 0.5  0.7 0.6 0.5  0.8 0.6 0.5  0.9 0.6 0.5  1 0.6 0.5  0.1 0.7 0.5  0 0.7 0.5  0.2 0.7 0.5  0.3 0.7 0.5  0.4 0.7 0.5  0.5 0.7 0.5  0.6 0.7 0.5  0.7 0.7 0.5  0.8 0.7 0.5  0.9 0.7 0.5  1 0.7 0.5  0.1 0.8 0.5  0 0.8 0.5  0.2 0.8 0.5  0.3 0.8 0.5  0.4 0.8 0.5  0.5 0.8 0.5  0.6 0.8 0.5  0.7 0.8 0.5  0.8 0.8 0.5  0.9 0.8 0.5  1 0.8 0.5  0.1 0.3 0.6  0.1 0.2 0.6  0 0.2 0.6  0 0.3 0.6  0.2 0.3 0.6  0.2 0.2 0.6  0.3 0.3 0.6  0.3 0.2 0.6  0.4 0.3 0.6  0.4 0.2 0.6  0.5 0.3 0.6  0.5 0.2 0.6  0.6 0.3 0.6  0.6 0.2 0.6  0.7 0.3 0.6  0.7 0.2 0.6  0.8 0.3 0.6  0.8 0.2 0.6  0.9 0.3 0.6  0.9 0.2 0.6  1 0.3 0.6  1 0.2 0.6  0.1 0.4 0.6  0 0.4 0.6  0.2 0.4 0.6  0.3 0.4 0.6  0.4 0.4 0.6  0.5 0.4 0.6  0.6 0.4 0.6  0.7 0.4 0.6  0.8 0.4 0.6  0.9 0.4 0.6  1 0.4 0.6  0.1 0.5 0.6  0 0.5 0.6  0.2 0.5 0.6  0.3 0.5 0.6  0.4 0.5 0.6  0.5 0.5 0.6  0.6 0.5 0.6  0.7 0.5 0.6  0.8 0.5 0.6  0.9 0.5 0.6  1 0.5 0.6  0.1 0.6 0.6  0 0.6 0.6  0.2 0.6 0.6  0.3 0.6 0.6  0.4 0.6 0.6  0.5 0.6 0.6  0.6 0.6 0.6  0.7 0.6 0.6  0.8 0.6 0.6  0.9 0.6 0.6  1 0.6 0.6  0.1 0.7 0.6  0 0.7 0.6  0.2 0.7 0.6  0.3 0.7 0.6  0.4 0.7 0.6  0.5 0.7 0.6  0.6 0.7 0.6  0.7 0.7 0.6  0.8 0.7 0.6  0.9 0.7 0.6  1 0.7 0.6  0.1 0.8 0.6  0 0.8 0.6  0.2 0.8 0.6  0.3 0.8 0.6  0.4 0.8 0.6  0.5 0.8 0.6  0.6 0.8 0.6  0.7 0.8 0.6  0.8 0.8 0.6  0.9 0.8 0.6  1 0.8 0.6  0.1 0.3 0.7  0.1 0.2 0.7  0 0.2 0.7  0 0.3 0.7  0.2 0.3 0.7  0.2 0.2 0.7  0.3 0.3 0.7  0.3 0.2 0.7  0.4 0.3 0.7  0.4 0.2 0.7  0.5 0.3 0.7  0.5 0.2 0.7  0.6 0.3 0.7  0.6 0.2 0.7  0.7 0.3 0.7  0.7 0.2 0.7  0.8 0.3 0.7  0.8 0.2 0.7  0.9 0.3 0.7  0.9 0.2 0.7  1 0.3 0.7  1 0.2 0.7  0.1 0.4 0.7  0 0.4 0.7  0.2 0.4 0.7  0.3 0.4 0.7  0.4 0.4 0.7  0.5 0.4 0.7  0.6 0.4 0.7  0.7 0.4 0.7  0.8 0.4 0.7  0.9 0.4 0.7  1 0.4 0.7  0.1 0.5 0.7  0 0.5 0.7  0.2 0.5 0.7  0.3 0.5 0.7  0.4 0.5 0.7  0.5 0.5 0.7  0.6 0.5 0.7  0.7 0.5 0.7  0.8 0.5 0.7  0.9 0.5 0.7  1 0.5 0.7  0.1 0.6 0.7  0 0.6 0.7  0.2 0.6 0.7  0.3 0.6 0.7  0.4 0.6 0.7  0.5 0.6 0.7  0.6 0.6 0.7  0.7 0.6 0.7  0.8 0.6 0.7  0.9 0.6 0.7  1 0.6 0.7  0.1 0.7 0.7  0 0.7 0.7  0.2 0.7 0.7  0.3 0.7 0.7  0.4 0.7 0.7  0.5 0.7 0.7  0.6 0.7 0.7  0.7 0.7 0.7  0.8 0.7 0.7  0.9 0.7 0.7  1 0.7 0.7  0.1 0.8 0.7  0 0.8 0.7  0.2 0.8 0.7  0.3 0.8 0.7  0.4 0.8 0.7  0.5 0.8 0.7  0.6 0.8 0.7  0.7 0.8 0.7  0.8 0.8 0.7  0.9 0.8 0.7  1 0.8 0.7  0.1 0.3 0.8  0.1 0.2 0.8  0 0.2 0.8  0 0.3 0.8  0.2 0.3 0.8  0.2 0.2 0.8  0.3 0.3 0.8  0.3 0.2 0.8  0.4 0.3 0.8  0.4 0.2 0.8  0.5 0.3 0.8  0.5 0.2 0.8  0.6 0.3 0.8  0.6 0.2 0.8  0.7 0.3 0.8  0.7 0.2 0.8  0.8 0.3 0.8  0.8 0.2 0.8  0.9 0.3 0.8  0.9 0.2 0.8  1 0.3 0.8  1 0.2 0.8  0.1 0.4 0.8  0 0.4 0.8  0.2 0.4 0.8  0.3 0.4 0.8  0.4 0.4 0.8  0.5 0.4 0.8  0.6 0.4 0.8  0.7 0.4 0.8  0.8 0.4 0.8  0.9 0.4 0.8  1 0.4 0.8  0.1 0.5 0.8  0 0.5 0.8  0.2 0.5 0.8  0.3 0.5 0.8  0.4 0.5 0.8  0.5 0.5 0.8  0.6 0.5 0.8  0.7 0.5 0.8  0.8 0.5 0.8  0.9 0.5 0.8  1 0.5 0.8  0.1 0.6 0.8  0 0.6 0.8  0.2 0.6 0.8  0.3 0.6 0.8  0.4 0.6 0.8  0.5 0.6 0.8  0.6 0.6 0.8  0.7 0.6 0.8  0.8 0.6 0.8  0.9 0.6 0.8  1 0.6 0.8  0.1 0.7 0.8  0 0.7 0.8  0.2 0.7 0.8  0.3 0.7 0.8  0.4 0.7 0.8  0.5 0.7 0.8  0.6 0.7 0.8  0.7 0.7 0.8  0.8 0.7 0.8  0.9 0.7 0.8  1 0.7 0.8  0.1 0.8 0.8  0 0.8 0.8  0.2 0.8 0.8  0.3 0.8 0.8  0.4 0.8 0.8  0.5 0.8 0.8  0.6 0.8 0.8  0.7 0.8 0.8  0.8 0.8 0.8  0.9 0.8 0.8  1 0.8 0.8  </DataArray>
</Points>
<Cells>
[...]
<PointData  Vectors="f_23"> 
<DataArray  type="Float64"  Name="f_23"  NumberOfComponents="3" format="ascii">7.2702492234240704e-04 9.0408097338858754e-05 -1.2910599125892168e-05  6.7018137438997340e-04 1.2378854549454941e-04 -1.7257654598054378e-05  7.1332428104403840e-04 9.1476443113506326e-05 -1.2882421603216593e-05  7.1584478786102301e-02 1.9393158784930352e-04 4.2953669095632758e-04  6.7640516692549799e-04 1.1814372818291944e-04 -1.2141183946812461e-05  7.2055153195832694e-04 8.1617079020260497e-05 -5.9160884387673227e-06  7.6587260725712101e-04 6.5077328731333035e-05 -1.3202448016347242e-05  7.1141094073041228e-02 4.3978717568150761e-04 9.3509132380649126e-04  5.7115058712756313e-04 1.8839028306450378e-04 -2.4268613769098532e-05  6.1843412042687622e-04 1.4680956262242729e-04 -1.8152018785331280e-05  7.1058970071648297e-02 5.4536141178639940e-05 2.3672019833105031e-04  5.9177386506929926e-04 1.8981846888552727e-04 -1.8276780208431694e-05  4.3632878765618836e-04 2.4116060273688929e-04 -2.9782865598881442e-05  4.8834958064958376e-04 1.9093816329097168e-04 -1.8049085221245807e-05  7.1013931487755075e-02 -3.3381313073726683e-05 2.9107064319186873e-04  4.6960459771696206e-04 2.6118526203772609e-04 -2.3409996329273403e-05  2.5729000210475628e-04 2.7420520014506499e-04 -2.5792407007098922e-05  3.1209258118632089e-04 2.2056860773659294e-04 -1.0026337885082584e-05  7.0843341639512405e-02 -1.2639626179476618e-04 4.3394739465588790e-04  3.1064312822551640e-04 3.2191747461051166e-04 -2.1169879581311246e-05  1.5993092934825008e-05 2.7389229431106366e-04 1.2855546226027677e-06  7.1728627396589842e-05 2.2663829509483315e-04 1.5027748555773126e-05  7.0550939573377186e-02 -2.4621867496696376e-04 6.2193134591202628e-04  9.8049277554593522e-05 3.5396687660141520e-04 3.4025242145478063e-06  -3.0322653544049134e-04 2.3175602167690347e-04 5.5608479935402333e-05  -2.4765369839491934e-04 2.0147129195553291e-04 5.9258124393827013e-05  7.0191960406045042e-02 -3.6389953462080530e-04 7.8049441437137452e-04  -1.9485679640267602e-04 3.3192498757731614e-04 6.5783715167675653e-05  -6.7398793770297107e-04 1.5769342188444086e-04 1.0103062528356283e-04  -6.2572566634951597e-04 1.4752528668283282e-04 9.5777545279669970e-05  6.9983187155176652e-02 -4.3848428894007445e-04 7.2929893698799703e-04  -5.7066045046870277e-04 2.4678369997010243e-04 1.4271102877540045e-04  -9.7400575600711174e-04 7.7561329765052367e-05 8.2262524737677524e-05  -9.5809148478627709e-04 8.3009267255656683e-05 7.9034024381615978e-05  7.0479666111405409e-02 -4.3586414226726725e-04 1.6804422877621063e-04  -9.3823773741006776e-04 1.2614808153292876e-04 1.2870071542622720e-04  -1.0998635358539350e-03 2.6631574169857526e-05 2.2990594521492788e-05  -1.1142183040030458e-03 2.9967591958270070e-05 4.1086451058647273e-05  7.2170716995968692e-02 -2.6148244646776662e-04 -5.3878597071072964e-04  -1.1331263702380524e-03 5.3900037009089019e-05 4.0497923967726388e-05  -1.1547884221600503e-03 3.8295671741950359e-05 6.0467981561739808e-05  -1.1514513878232093e-03 2.4942833546599527e-05 5.8059952155781453e-05  7.4054383288801207e-02 2.5183421084163478e-04 9.1322599223876547e-04  -1.1897372897544519e-03 4.0031938406069488e-05 6.6101756045195968e-05  7.6292578973909673e-04 5.8787802472370297e-05 -9.8940756341329513e-06  1.1288474647581294e-01 -8.3984630272316204e-05 4.4423082405619887e-04  8.1738275146414543e-04 4.1529127003033092e-05 -1.0769614747548061e-05  1.1218450201238449e-01 4.6492476088550057e-04 1.0664568901002716e-03  6.5808734075488754e-04 9.5308244191970277e-05 -9.6468499546151639e-06  1.1243212025496140e-01 -1.0973549707079780e-04 2.2802214865139480e-04  5.1944312548015358e-04 1.2482022720120237e-04 -2.5070794757805064e-06  1.1233487555721818e-01 -1.5069802386865439e-04 2.3933424960821624e-04  3.2857698208049019e-04 1.4307656266225759e-04 1.4679610041721060e-05  1.1219938727267782e-01 -2.1744134604988143e-04 3.0735428553636850e-04  6.8064045349355243e-05 1.4487161682778387e-04 4.6656173031327061e-05  1.1200539792407534e-01 -3.0053748391640312e-04 3.6292526079813423e-04  -2.7251363932751860e-04 1.2787348274143474e-04 8.9811757392146949e-05  1.1185164899508704e-01 -3.5200242214139223e-04 3.2696182089019411e-04  -6.6647359533567193e-04 9.6231421205919841e-05 1.1676711505894167e-04  1.1196172136056369e-01 -3.0197616568779147e-04 7.0102029927848354e-05  -1.0040167315944009e-03 5.9290276735887173e-05 8.9759489901188077e-05  1.1267110866927567e-01 -1.1408061264836890e-04 -4.9138243911719709e-04  -1.1551704068720652e-03 2.4145593666847951e-05 4.7696716807010346e-05  1.1412973510685129e-01 1.7325940810910989e-04 -7.8051036738733507e-04  -1.1864900427203838e-03 1.7539240885960700e-05 6.8250537157198813e-05  1.1600048485397041e-01 1.0516767744582106e-04 9.2007105292030795e-04  7.9362845207380309e-04 3.2724876808509763e-05 -6.4943733527295858e-06  1.2380518832287890e-01 -6.3102621037101079e-05 4.0271365344583625e-04  8.4929899435767938e-04 2.1034661325997029e-05 -7.7893187203172243e-06  1.2314907577473504e-01 3.2950612460464645e-04 1.0512455183059753e-03  6.8315829232008991e-04 5.4544133541441690e-05 -4.4604964313619136e-06  1.2339538796472199e-01 -1.3706424933608127e-04 1.8362467347889954e-04  5.3677645498609685e-04 7.1596171291500200e-05 5.7295856639585740e-06  1.2328296560103870e-01 -1.4965241725408210e-04 1.8584860729516437e-04  3.3379591100726633e-04 7.9577853728986486e-05 2.6574415641321572e-05  1.2312690024169967e-01 -1.7077702649110767e-04 2.2945315767840943e-04  5.9508476558531962e-05 7.4853963739045243e-05 6.0570964799893133e-05  1.2294964130389717e-01 -1.9589684673169264e-04 2.4501045968188971e-04  -2.9169091174196252e-04 5.8798306602725591e-05 1.0179018011887567e-04  1.2288185135045326e-01 -1.8743684661080127e-04 1.6154104176625836e-04  -6.9008836703441843e-04 4.0238227357938191e-05 1.2436872823458204e-04  1.2315298398968438e-01 -9.1779728899341807e-05 -1.2278528047551430e-04  -1.0278497123998105e-03 2.8315118099528491e-05 9.4033706937886606e-05  1.2398845684533001e-01 1.0943792801396558e-04 -6.1369473071446975e-04  -1.1792915090112221e-03 1.1752509514713600e-05 5.0196013712181074e-05  1.2530904289052452e-01 3.1683845221673395e-04 -6.7949460119193499e-04  -1.2115999549902820e-03 1.4977618129419558e-05 7.0716535015772481e-05  1.2703658883369548e-01 1.3699970648705791e-04 8.0341429955172079e-04  8.1178801813019496e-04 1.4351894832319491e-05 -3.2992545394132723e-06  1.1284605670364507e-01 -7.4913810017519008e-05 3.4903757350747931e-04  8.6560559989794217e-04 3.1752850473491952e-06 -3.8299152866406425e-06  1.1228968521291399e-01 1.8157495758972281e-04 9.7581266720778940e-04  7.0032517639118303e-04 2.6779152079870001e-05 -1.6992283903512798e-06  1.1247069266511586e-01 -1.1821113194559007e-04 1.5950582387608029e-04  5.4878604530411528e-04 3.8354906816956404e-05 7.5429192173485464e-06  1.1236523677384570e-01 -1.0165824562685208e-04 1.6011540121904156e-04  3.3627289549184277e-04 4.3459923313598482e-05 2.7282892518414854e-05  1.1221010472173530e-01 -8.4150037242439532e-05 1.9559830192993698e-04  5.1944957652189647e-05 3.8487376428147990e-05 5.8232833273572160e-05  1.1204312743918887e-01 -6.5065393555429959e-05 2.0201529329770356e-04  -3.0379212202919474e-04 2.5328469131805132e-05 9.3693499864525828e-05  1.1200755714058064e-01 -2.5372134745564855e-05 1.1686738102346039e-04  -6.9865564566740253e-04 1.3668581347896867e-05 1.1217425247589974e-04  1.1231622698919790e-01 5.7374119489856801e-05 -1.3985018488057844e-04  -1.0324522225615021e-03 1.4341438189757823e-05 8.4609005144590201e-05  1.1311970108529844e-01 1.8022836016752495e-04 -5.2403705342532090e-04  -1.1893646004737207e-03 4.6853443198309827e-06 4.5290832980874247e-05  1.1424358225049293e-01 2.3545104093079087e-04 -4.6539151759191437e-04  -1.2284768730356189e-03 1.8898880771457762e-05 6.2174339645764209e-05  1.1558330526543441e-01 9.5428928041770339e-05 7.7837742080291684e-04  8.2725046917783262e-04 4.1406255502460138e-07 -1.3790787803248847e-06  7.2388843263478830e-02 -6.5319743391201206e-05 2.7441843623318544e-04  8.7508457408250683e-04 -3.3340786125221580e-06 4.0691659198295962e-07  7.2506414586282611e-02 3.1723362051475339e-04 7.8577259179233509e-04  7.2229504665271725e-04 9.0902889325163565e-06 -2.3169169084981182e-06  7.2077515268556311e-02 -5.0619127121133618e-05 1.2952643328944350e-04  5.7209397196653414e-04 2.2431717654841985e-05 1.2397124075005486e-06  7.2018103975129907e-02 1.7715996681026094e-05 1.2723721266802128e-04  3.5619628010021687e-04 3.2917636084526763e-05 1.5478656869030929e-05  7.1923180131839695e-02 7.9162556439559738e-05 1.5191291170297061e-04  6.6537690393806431e-05 3.5387719177446754e-05 4.0311675537406708e-05  7.1806017920082094e-02 1.4266797409127142e-04 1.5048626763364197e-04  -2.9365324802633293e-04 3.0335881385489404e-05 6.9095080666537931e-05  7.1768624446314475e-02 2.0976177109840912e-04 7.5982735177687423e-05  -6.8971525074424083e-04 2.4000360970027524e-05 8.5108620338500524e-05  7.1964630209401859e-02 2.7336688704189576e-04 -1.1862944685934862e-04  -1.0263131459751641e-03 2.3788747155153705e-05 6.6551584812397856e-05  7.2520734903816525e-02 3.1962453054123997e-04 -3.6773201239458434e-04  -1.1932298993460179e-03 1.9410504890127230e-05 3.4749622449731957e-05  7.3410212678447981e-02 3.4842483141687351e-04 -2.7692653435526857e-04  -1.2393152305838627e-03 2.6136221645415934e-05 4.3762144793246415e-05  7.3830463066151361e-02 7.4900660674371552e-05 7.9018284527595324e-04  8.6201023631733676e-04 -2.4301888709930819e-06 -2.3906981092157512e-06  8.7515387854543848e-04 -2.9361812937868730e-07 -1.4228515592921089e-06  9.0350257072171255e-04 -9.7225688970135305e-06 1.3373233633786843e-06  9.0326966687408672e-04 -6.7210370827508559e-06 6.6519422174917439e-07  7.7301726680213190e-04 6.4323209355400932e-06 -7.0974694922882768e-06  8.1151182465091386e-04 1.7228478247448108e-06 -3.7704072369470992e-06  6.4409036042110002e-04 1.8237522072333882e-05 -7.1091274497622036e-06  6.9944811052408281e-04 1.5545327718254062e-05 -3.2288142447107740e-06  4.5716964965123835e-04 3.0430957345157675e-05 -5.1763497854206268e-06  5.3712579218132841e-04 2.9082035570678327e-05 5.4224175285845806e-06  1.9746787618814447e-04 3.6558486503450987e-05 4.8148201889287056e-06  3.0887741751189142e-04 3.6374357992941106e-05 2.5944135976061527e-05  -1.3985599012594861e-04 3.5298623926354090e-05 2.2702945625374985e-05  4.1229576552507399e-06 3.5190039152944423e-05 5.6642215223871715e-05  -5.3850961073762167e-04 3.0070831815891213e-05 4.2625626028947986e-05  -3.7448953597187098e-04 2.9349845589367782e-05 8.7028812876389322e-05  -9.2751595596056685e-04 2.2280947701663151e-05 5.1662125356229833e-05  -7.8325348746679873e-04 2.6638428794303549e-05 9.5822645079142614e-05  -1.1644438359910013e-03 1.8805434859690998e-05 3.5749689783679326e-05  -1.0877320962847518e-03 2.3642104330076962e-05 6.7712661061510902e-05  -1.2325032235566220e-03 2.7722107568058322e-05 2.4752886567539014e-05  -1.2031054117603284e-03 3.2175358856911339e-05 4.6078378763748693e-05  1.1298177137988336e-01 1.7647230641104132e-04 2.2537836234385176e-04  6.7594401064344396e-04 1.1661250072660815e-04 1.6345417830088094e-07  7.1913272854709032e-04 7.8444630542366688e-05 2.3370393226549889e-06  1.1236290037045488e-01 4.4819413103933337e-04 9.6166615902851715e-04  1.1260186140732192e-01 6.2363308664161300e-05 1.5950246755237567e-04  5.9523256399800824e-04 1.9759828404867870e-04 1.6283423221737376e-06  1.1260227117049101e-01 -3.4139090654141237e-05 2.9189634013397360e-04  4.7886073236924821e-04 2.9077589986168637e-04 6.1987509911338732e-06  1.1254024296873177e-01 -1.4087390362612756e-04 5.1793882448389827e-04  3.2750886536258455e-04 3.9504428618722349e-04 1.6815756606459075e-05  1.1233764081885918e-01 -3.0334238250570133e-04 8.2035459911213363e-04  1.2750187537377935e-04 4.9372224584896189e-04 4.3944490077010696e-05  1.1194058552703759e-01 -5.1464360322183637e-04 1.1197862722855144e-03  -1.5174655337555373e-04 5.3673935234902176e-04 1.1676970343554036e-04  1.1137488775813556e-01 -6.4426992104339362e-04 1.1344766417659912e-03  -5.3721275315156284e-04 4.5798140271976909e-04 2.5442896076858623e-04  1.1145898169784289e-01 -6.7074264497159598e-04 4.0652538875529041e-04  -9.4644959594345889e-04 2.5809382676581996e-04 2.9199283121156136e-04  1.1383960172296427e-01 -5.4384828216382246e-04 -9.4326121033152177e-04  -1.2115288256201633e-03 1.0688003218880158e-04 6.4643331517262817e-05  1.1616254969259754e-01 2.9573225717952740e-04 1.6872328494953648e-03  -1.3246172815654330e-03 7.2396290291739475e-05 9.3293488535992587e-05  1.7724515209532238e-01 -1.2559143613813064e-04 2.5205942100752827e-04  1.7690880025168454e-01 5.0134605227826804e-04 1.1108656017030285e-03  1.7693813279113996e-01 -1.2394056953611454e-04 1.7696629946043778e-04  1.7679378231348056e-01 -1.8354743945466704e-04 2.8309934637479477e-04  1.7671433797518024e-01 -2.9439013729219970e-04 4.2923346106233772e-04  1.7658799892296811e-01 -4.6069862382779026e-04 5.4817217332047601e-04  1.7642086087382450e-01 -6.2960145531946478e-04 5.1848413969154115e-04  1.7639914725763522e-01 -6.3405160652917449e-04 9.8856082652730001e-05  1.7710950215683882e-01 -2.8695960412712163e-04 -9.4540290134098744e-04  1.7917390169241679e-01 3.4294156698616720e-04 -1.7868245138643233e-03  1.8160058166577039e-01 6.0502074841563344e-05 1.1356941123039977e-03  1.9508567931898102e-01 -5.9794348710274100e-05 2.2489211374162010e-04  1.9484018656886926e-01 3.6619295167593971e-04 1.1078967873535085e-03  1.9481798782205631e-01 -1.4188541454491002e-04 1.5172282105373335e-04  1.9465019763887678e-01 -1.6687867348974666e-04 2.4082806987584071e-04  1.9453606478105051e-01 -2.1629919074320856e-04 3.4851428269055425e-04  1.9440974849710199e-01 -2.9332785710983592e-04 4.0325112981361128e-04  1.9432895992934926e-01 -3.4799185758145997e-04 2.9906352983036759e-04  1.9455399999154027e-01 -2.6318375839111581e-04 -1.5324700099443158e-04  1.9560524340358260e-01 9.0640318397616079e-05 -1.1013295787488341e-03  1.9760835025155066e-01 6.2521454214899206e-04 -1.6270074950702732e-03  1.9976347700681463e-01 2.3807219241430054e-04 7.8788414547528403e-04  1.7717552033495867e-01 -5.6187351742721534e-05 1.8090248795321010e-04  1.7705461328026784e-01 2.1110523339831500e-04 1.0294829184031447e-03  1.7692964768213262e-01 -1.1373993137636940e-04 1.2719563658692267e-04  1.7677595853884595e-01 -1.0356890841168806e-04 2.0701638355420673e-04  1.7665711408297280e-01 -1.0005503770352253e-04 2.9666682541242651e-04  1.7653052603828970e-01 -1.0932803239849443e-04 3.3501185127309782e-04  1.7647919748162788e-01 -1.0120771204742433e-04 2.3305883794775834e-04  1.7678521446608264e-01 -1.2463694824608452e-05 -1.5582356461729593e-04  1.7786426962609536e-01 2.1885665332668872e-04 -9.2480754141957458e-04  1.7960806363323231e-01 4.8100844106907487e-04 -1.1615634533830486e-03  1.8103099296371530e-01 1.6379131688796966e-04 7.8319460717391496e-04  1.1296403427835598e-01 -1.8694132269370306e-05 8.9732754197335498e-05  1.1354503670845704e-01 3.6222518697236043e-04 8.2342936695563101e-04  1.1276158829775189e-01 -3.3852862164688479e-05 7.1174246261174274e-05  1.1266792941044393e-01 2.5975053021056459e-05 1.3853126433684121e-04  1.1260685979132033e-01 8.5234393819485422e-05 2.0500760772829387e-04  1.1253385303459286e-01 1.3684155892005728e-04 2.3104042624272415e-04  1.1248879142917566e-01 1.8862222223530234e-04 1.4881575705757321e-04  1.1267038220905215e-01 2.5350093138845891e-04 -1.4883377958626432e-04  1.1342571028710720e-01 3.4510482235418404e-04 -6.5416707287456184e-04  1.1477980768016512e-01 4.6947903471131035e-04 -6.3287569264023366e-04  1.1486594963985751e-01 1.5689388052436294e-04 9.6312323690266781e-04  8.7698544002038368e-04 2.3579665879257551e-06 -1.4324936131699136e-07  9.0286380837665766e-04 -1.3866290709386764e-06 1.4142901054152195e-06  8.1575957434401353e-04 5.8561154865428187e-06 2.0447776109095031e-06  7.1299999298374207e-04 1.7285938894075525e-05 1.1884962240815705e-05  5.6623875691834099e-04 2.6645548870699548e-05 3.4340381428275439e-05  3.5626148459691004e-04 3.0219985462951164e-05 7.5364903862349623e-05  6.4882933011500206e-05 2.4651480032748135e-05 1.3447872606312964e-04  -3.2110978522394758e-04 1.3126009716123018e-05 1.9562690329572477e-04  -7.7373958693759224e-04 6.0363102525536119e-06 2.1913852113940145e-04  -1.1360928738886930e-03 4.7556358002248357e-06 1.6555344407383958e-04  -1.2673803338525923e-03 1.6108068742448707e-05 1.2867901781274865e-04  1.2398768875966223e-01 1.5778706699829610e-04 1.6419335038765227e-04  6.8479144242039234e-04 1.0918199586712060e-04 1.3439641224013372e-05  7.2656706329116670e-04 7.1491531080025738e-05 9.3439495327926425e-06  1.2340804312391888e-01 4.5503311390028144e-04 7.5160387889396660e-04  1.2368969199251521e-01 3.4769107147002891e-05 6.4993322326222454e-05  6.1118669540464294e-04 1.9122812522076740e-04 2.9115182666220584e-05  1.2377850122894622e-01 -5.9566226981876015e-05 1.6252895101420478e-04  5.0632769132396270e-04 2.9837172891004584e-04 5.2133662627761956e-05  1.2379528992304301e-01 -1.7059310615902851e-04 3.4562292828000112e-04  3.6819120295164033e-04 4.4607293542531918e-04 8.2246219907911988e-05  1.2365123285139420e-01 -3.6792879159096997e-04 6.2900906522291738e-04  1.8409973960251794e-04 6.4318460339613805e-04 1.1634058735367385e-04  1.2319333214075591e-01 -7.4658374823403971e-04 1.0134307481939034e-03  -9.1949355487988245e-05 8.4872789454510278e-04 1.6783473395972365e-04  1.2227967848241386e-01 -1.2571802270624688e-03 1.2875445889447921e-03  -5.3720654748082167e-04 9.1675385054242932e-04 3.2062260711163522e-04  1.2145881601143495e-01 -1.0931766761450947e-03 8.6672005835868808e-04  -9.8915382083796400e-04 6.6800481715491452e-04 6.9139184710027921e-04  1.2441228912336588e-01 -1.0011241113699765e-03 -8.1498728239467523e-04  -1.2862280022387922e-03 2.9719511030008383e-04 2.2148202387678380e-04  1.2897718774742270e-01 -6.5563956552946447e-04 3.5208887376378924e-03  -1.4760717326233515e-03 1.9197970827360957e-04 5.0353296404596482e-05  1.9516972998388465e-01 -1.5207436692727500e-04 2.2731426209615085e-04  1.9490040105896655e-01 5.0853413101103410e-04 8.8548696359003708e-04  1.9493244064471649e-01 -1.4602978794412688e-04 1.0655194204596502e-04  1.9483382709173677e-01 -2.1692494918695336e-04 1.9978836569124530e-04  1.9476843580680123e-01 -3.5689044049485734e-04 3.3550360504124293e-04  1.9460924478778602e-01 -6.0299529008854666e-04 4.4915898062883867e-04  1.9428044073735409e-01 -9.6716262005518984e-04 4.2265662666801136e-04  1.9389687905774289e-01 -1.2289826339815109e-03 -3.0825117640109795e-05  1.9437397244852919e-01 -7.1430723014269013e-04 -1.2623747927911478e-03  1.9712779377326822e-01 7.5558616001041609e-04 -3.4670796781682092e-03  2.0089578147020548e-01 -2.8090314924225879e-04 1.4755681277582296e-03  2.1523752041973021e-01 -7.5834617415449298e-05 2.1900147773010011e-04  2.1505738586906051e-01 3.6990709751741102e-04 9.0909482187709041e-04  2.1503211687186632e-01 -1.5185150676966618e-04 1.0013364089804091e-04  2.1489095818930237e-01 -1.8809412675577396e-04 1.7714709161156832e-04  2.1478489264636030e-01 -2.6284840797430792e-04 2.7163437168450683e-04  2.1462146936224341e-01 -3.9120137308857673e-04 3.0356885829658614e-04  2.1436849302793104e-01 -5.2894518509013220e-04 1.6077587900730053e-04  2.1424397008449070e-01 -4.8938595591982448e-04 -3.5668075480516868e-04  2.1530938713208461e-01 7.5957578711361917e-05 -1.4685263158471817e-03  2.1835887947782084e-01 1.1690704158189861e-03 -3.3872114267984731e-03  2.2149013010243720e-01 2.5753808725977794e-04 3.5985209707446541e-04  1.9513239172040683e-01 -5.6604487600911161e-05 1.9234632708600485e-04  1.9507475684727008e-01 2.1955650577492697e-04 8.7587770868803594e-04  1.9494503264622601e-01 -1.1461392065284748e-04 8.6106853493373502e-05  1.9481531070557381e-01 -1.0995529047861467e-04 1.5246241243148986e-04  1.9470159203151025e-01 -1.2351092646237192e-04 2.2792046349486185e-04  1.9453949669407289e-01 -1.6113087556784996e-04 2.4186943524597438e-04  1.