<?xml version="1.0"?>
<VTKFile type="UnstructuredGrid"  version="0.1"  >
<UnstructuredGrid>
<Piece  NumberOfPoints="539" NumberOfCells="2160">
<Points>
<DataArray  type="Float64"  NumberOfComponents="3"  format="ascii">0 0.2 0.2  0.1 0.2 0.2  0.1 0.3 0.2  0.1 0.3 0.3  0.1 0.2 0.3  0 0.2 0.3  0 0.3 0.2  0 0.3 0.3  0.2 0.2 0.2  0.2 0.3 0.2  0.2 0.3 0.3  0.2 0.2 0.3  0.3 0.2 0.2  0.3 0.3 0.2  0.3 0.3 0.3  0.3 0.2 0.3  0.4 0.2 0.2  0.4 0.3 0.2  0.4 0.3 0.3  0.4 0.2 0.3  0.5 0.2 0.2  0.5 0.3 0.2  0.5 0.3 0.3  0.5 0.2 0.3  0.6 0.2 0.2  0.6 0.3 0.2  0.6 0.3 0.3  0.6 0.2 0.3  0.7 0.2 0.2  0.7 0.3 0.2  0.7 0.3 0.3  0.7 0.2 0.3  0.8 0.2 0.2  0.8 0.3 0.2  0.8 0.3 0.3  0.8 0.2 0.3  0.9 0.2 0.2  0.9 0.3 0.2  0.9 0.3 0.3  0.9 0.2 0.3  1 0.2 0.2  1 0.3 0.2  1 0.3 0.3  1 0.2 0.3  0.1 0.4 0.2  0.1 0.4 0.3  0 0.4 0.2  0 0.4 0.3  0.2 0.4 0.2  0.2 0.4 0.3  0.3 0.4 0.2  0.3 0.4 0.3  0.4 0.4 0.2  0.4 0.4 0.3  0.5 0.4 0.2  0.5 0.4 0.3  0.6 0.4 0.2  0.6 0.4 0.3  0.7 0.4 0.2  0.7 0.4 0.3  0.8 0.4 0.2  0.8 0.4 0.3  0.9 0.4 0.2  0.9 0.4 0.3  1 0.4 0.2  1 0.4 0.3  0.1 0.5 0.2  0.1 0.5 0.3  0 0.5 0.2  0 0.5 0.3  0.2 0.5 0.2  0.2 0.5 0.3  0.3 0.5 0.2  0.3 0.5 0.3  0.4 0.5 0.2  0.4 0.5 0.3  0.5 0.5 0.2  0.5 0.5 0.3  0.6 0.5 0.2  0.6 0.5 0.3  0.7 0.5 0.2  0.7 0.5 0.3  0.8 0.5 0.2  0.8 0.5 0.3  0.9 0.5 0.2  0.9 0.5 0.3  1 0.5 0.2  1 0.5 0.3  0.1 0.6 0.2  0.1 0.6 0.3  0 0.6 0.2  0 0.6 0.3  0.2 0.6 0.2  0.2 0.6 0.3  0.3 0.6 0.2  0.3 0.6 0.3  0.4 0.6 0.2  0.4 0.6 0.3  0.5 0.6 0.2  0.5 0.6 0.3  0.6 0.6 0.2  0.6 0.6 0.3  0.7 0.6 0.2  0.7 0.6 0.3  0.8 0.6 0.2  0.8 0.6 0.3  0.9 0.6 0.2  0.9 0.6 0.3  1 0.6 0.2  1 0.6 0.3  0.1 0.7 0.2  0.1 0.7 0.3  0 0.7 0.2  0 0.7 0.3  0.2 0.7 0.2  0.2 0.7 0.3  0.3 0.7 0.2  0.3 0.7 0.3  0.4 0.7 0.2  0.4 0.7 0.3  0.5 0.7 0.2  0.5 0.7 0.3  0.6 0.7 0.2  0.6 0.7 0.3  0.7 0.7 0.2  0.7 0.7 0.3  0.8 0.7 0.2  0.8 0.7 0.3  0.9 0.7 0.2  0.9 0.7 0.3  1 0.7 0.2  1 0.7 0.3  0.1 0.8 0.2  0.1 0.8 0.3  0 0.8 0.2  0 0.8 0.3  0.2 0.8 0.2  0.2 0.8 0.3  0.3 0.8 0.2  0.3 0.8 0.3  0.4 0.8 0.2  0.4 0.8 0.3  0.5 0.8 0.2  0.5 0.8 0.3  0.6 0.8 0.2  0.6 0.8 0.3  0.7 0.8 0.2  0.7 0.8 0.3  0.8 0.8 0.2  0.8 0.8 0.3  0.9 0.8 0.2  0.9 0.8 0.3  1 0.8 0.2  1 0.8 0.3  0.1 0.3 0.4  0.1 0.2 0.4  0 0.2 0.4  0 0.3 0.4  0.2 0.3 0.4  0.2 0.2 0.4  0.3 0.3 0.4  0.3 0.2 0.4  0.4 0.3 0.4  0.4 0.2 0.4  0.5 0.3 0.4  0.5 0.2 0.4  0.6 0.3 0.4  0.6 0.2 0.4  0.7 0.3 0.4  0.7 0.2 0.4  0.8 0.3 0.4  0.8 0.2 0.4  0.9 0.3 0.4  0.9 0.2 0.4  1 0.3 0.4  1 0.2 0.4  0.1 0.4 0.4  0 0.4 0.4  0.2 0.4 0.4  0.3 0.4 0.4  0.4 0.4 0.4  0.5 0.4 0.4  0.6 0.4 0.4  0.7 0.4 0.4  0.8 0.4 0.4  0.9 0.4 0.4  1 0.4 0.4  0.1 0.5 0.4  0 0.5 0.4  0.2 0.5 0.4  0.3 0.5 0.4  0.4 0.5 0.4  0.5 0.5 0.4  0.6 0.5 0.4  0.7 0.5 0.4  0.8 0.5 0.4  0.9 0.5 0.4  1 0.5 0.4  0.1 0.6 0.4  0 0.6 0.4  0.2 0.6 0.4  0.3 0.6 0.4  0.4 0.6 0.4  0.5 0.6 0.4  0.6 0.6 0.4  0.7 0.6 0.4  0.8 0.6 0.4  0.9 0.6 0.4  1 0.6 0.4  0.1 0.7 0.4  0 0.7 0.4  0.2 0.7 0.4  0.3 0.7 0.4  0.4 0.7 0.4  0.5 0.7 0.4  0.6 0.7 0.4  0.7 0.7 0.4  0.8 0.7 0.4  0.9 0.7 0.4  1 0.7 0.4  0.1 0.8 0.4  0 0.8 0.4  0.2 0.8 0.4  0.3 0.8 0.4  0.4 0.8 0.4  0.5 0.8 0.4  0.6 0.8 0.4  0.7 0.8 0.4  0.8 0.8 0.4  0.9 0.8 0.4  1 0.8 0.4  0.1 0.3 0.5  0.1 0.2 0.5  0 0.2 0.5  0 0.3 0.5  0.2 0.3 0.5  0.2 0.2 0.5  0.3 0.3 0.5  0.3 0.2 0.5  0.4 0.3 0.5  0.4 0.2 0.5  0.5 0.3 0.5  0.5 0.2 0.5  0.6 0.3 0.5  0.6 0.2 0.5  0.7 0.3 0.5  0.7 0.2 0.5  0.8 0.3 0.5  0.8 0.2 0.5  0.9 0.3 0.5  0.9 0.2 0.5  1 0.3 0.5  1 0.2 0.5  0.1 0.4 0.5  0 0.4 0.5  0.2 0.4 0.5  0.3 0.4 0.5  0.4 0.4 0.5  0.5 0.4 0.5  0.6 0.4 0.5  0.7 0.4 0.5  0.8 0.4 0.5  0.9 0.4 0.5  1 0.4 0.5  0.1 0.5 0.5  0 0.5 0.5  0.2 0.5 0.5  0.3 0.5 0.5  0.4 0.5 0.5  0.5 0.5 0.5  0.6 0.5 0.5  0.7 0.5 0.5  0.8 0.5 0.5  0.9 0.5 0.5  1 0.5 0.5  0.1 0.6 0.5  0 0.6 0.5  0.2 0.6 0.5  0.3 0.6 0.5  0.4 0.6 0.5  0.5 0.6 0.5  0.6 0.6 0.5  0.7 0.6 0.5  0.8 0.6 0.5  0.9 0.6 0.5  1 0.6 0.5  0.1 0.7 0.5  0 0.7 0.5  0.2 0.7 0.5  0.3 0.7 0.5  0.4 0.7 0.5  0.5 0.7 0.5  0.6 0.7 0.5  0.7 0.7 0.5  0.8 0.7 0.5  0.9 0.7 0.5  1 0.7 0.5  0.1 0.8 0.5  0 0.8 0.5  0.2 0.8 0.5  0.3 0.8 0.5  0.4 0.8 0.5  0.5 0.8 0.5  0.6 0.8 0.5  0.7 0.8 0.5  0.8 0.8 0.5  0.9 0.8 0.5  1 0.8 0.5  0.1 0.3 0.6  0.1 0.2 0.6  0 0.2 0.6  0 0.3 0.6  0.2 0.3 0.6  0.2 0.2 0.6  0.3 0.3 0.6  0.3 0.2 0.6  0.4 0.3 0.6  0.4 0.2 0.6  0.5 0.3 0.6  0.5 0.2 0.6  0.6 0.3 0.6  0.6 0.2 0.6  0.7 0.3 0.6  0.7 0.2 0.6  0.8 0.3 0.6  0.8 0.2 0.6  0.9 0.3 0.6  0.9 0.2 0.6  1 0.3 0.6  1 0.2 0.6  0.1 0.4 0.6  0 0.4 0.6  0.2 0.4 0.6  0.3 0.4 0.6  0.4 0.4 0.6  0.5 0.4 0.6  0.6 0.4 0.6  0.7 0.4 0.6  0.8 0.4 0.6  0.9 0.4 0.6  1 0.4 0.6  0.1 0.5 0.6  0 0.5 0.6  0.2 0.5 0.6  0.3 0.5 0.6  0.4 0.5 0.6  0.5 0.5 0.6  0.6 0.5 0.6  0.7 0.5 0.6  0.8 0.5 0.6  0.9 0.5 0.6  1 0.5 0.6  0.1 0.6 0.6  0 0.6 0.6  0.2 0.6 0.6  0.3 0.6 0.6  0.4 0.6 0.6  0.5 0.6 0.6  0.6 0.6 0.6  0.7 0.6 0.6  0.8 0.6 0.6  0.9 0.6 0.6  1 0.6 0.6  0.1 0.7 0.6  0 0.7 0.6  0.2 0.7 0.6  0.3 0.7 0.6  0.4 0.7 0.6  0.5 0.7 0.6  0.6 0.7 0.6  0.7 0.7 0.6  0.8 0.7 0.6  0.9 0.7 0.6  1 0.7 0.6  0.1 0.8 0.6  0 0.8 0.6  0.2 0.8 0.6  0.3 0.8 0.6  0.4 0.8 0.6  0.5 0.8 0.6  0.6 0.8 0.6  0.7 0.8 0.6  0.8 0.8 0.6  0.9 0.8 0.6  1 0.8 0.6  0.1 0.3 0.7  0.1 0.2 0.7  0 0.2 0.7  0 0.3 0.7  0.2 0.3 0.7  0.2 0.2 0.7  0.3 0.3 0.7  0.3 0.2 0.7  0.4 0.3 0.7  0.4 0.2 0.7  0.5 0.3 0.7  0.5 0.2 0.7  0.6 0.3 0.7  0.6 0.2 0.7  0.7 0.3 0.7  0.7 0.2 0.7  0.8 0.3 0.7  0.8 0.2 0.7  0.9 0.3 0.7  0.9 0.2 0.7  1 0.3 0.7  1 0.2 0.7  0.1 0.4 0.7  0 0.4 0.7  0.2 0.4 0.7  0.3 0.4 0.7  0.4 0.4 0.7  0.5 0.4 0.7  0.6 0.4 0.7  0.7 0.4 0.7  0.8 0.4 0.7  0.9 0.4 0.7  1 0.4 0.7  0.1 0.5 0.7  0 0.5 0.7  0.2 0.5 0.7  0.3 0.5 0.7  0.4 0.5 0.7  0.5 0.5 0.7  0.6 0.5 0.7  0.7 0.5 0.7  0.8 0.5 0.7  0.9 0.5 0.7  1 0.5 0.7  0.1 0.6 0.7  0 0.6 0.7  0.2 0.6 0.7  0.3 0.6 0.7  0.4 0.6 0.7  0.5 0.6 0.7  0.6 0.6 0.7  0.7 0.6 0.7  0.8 0.6 0.7  0.9 0.6 0.7  1 0.6 0.7  0.1 0.7 0.7  0 0.7 0.7  0.2 0.7 0.7  0.3 0.7 0.7  0.4 0.7 0.7  0.5 0.7 0.7  0.6 0.7 0.7  0.7 0.7 0.7  0.8 0.7 0.7  0.9 0.7 0.7  1 0.7 0.7  0.1 0.8 0.7  0 0.8 0.7  0.2 0.8 0.7  0.3 0.8 0.7  0.4 0.8 0.7  0.5 0.8 0.7  0.6 0.8 0.7  0.7 0.8 0.7  0.8 0.8 0.7  0.9 0.8 0.7  1 0.8 0.7  0.1 0.3 0.8  0.1 0.2 0.8  0 0.2 0.8  0 0.3 0.8  0.2 0.3 0.8  0.2 0.2 0.8  0.3 0.3 0.8  0.3 0.2 0.8  0.4 0.3 0.8  0.4 0.2 0.8  0.5 0.3 0.8  0.5 0.2 0.8  0.6 0.3 0.8  0.6 0.2 0.8  0.7 0.3 0.8  0.7 0.2 0.8  0.8 0.3 0.8  0.8 0.2 0.8  0.9 0.3 0.8  0.9 0.2 0.8  1 0.3 0.8  1 0.2 0.8  0.1 0.4 0.8  0 0.4 0.8  0.2 0.4 0.8  0.3 0.4 0.8  0.4 0.4 0.8  0.5 0.4 0.8  0.6 0.4 0.8  0.7 0.4 0.8  0.8 0.4 0.8  0.9 0.4 0.8  1 0.4 0.8  0.1 0.5 0.8  0 0.5 0.8  0.2 0.5 0.8  0.3 0.5 0.8  0.4 0.5 0.8  0.5 0.5 0.8  0.6 0.5 0.8  0.7 0.5 0.8  0.8 0.5 0.8  0.9 0.5 0.8  1 0.5 0.8  0.1 0.6 0.8  0 0.6 0.8  0.2 0.6 0.8  0.3 0.6 0.8  0.4 0.6 0.8  0.5 0.6 0.8  0.6 0.6 0.8  0.7 0.6 0.8  0.8 0.6 0.8  0.9 0.6 0.8  1 0.6 0.8  0.1 0.7 0.8  0 0.7 0.8  0.2 0.7 0.8  0.3 0.7 0.8  0.4 0.7 0.8  0.5 0.7 0.8  0.6 0.7 0.8  0.7 0.7 0.8  0.8 0.7 0.8  0.9 0.7 0.8  1 0.7 0.8  0.1 0.8 0.8  0 0.8 0.8  0.2 0.8 0.8  0.3 0.8 0.8  0.4 0.8 0.8  0.5 0.8 0.8  0.6 0.8 0.8  0.7 0.8 0.8  0.8 0.8 0.8  0.9 0.8 0.8  1 0.8 0.8  </DataArray>
</Points>
<Cells>
[...]
<PointData  Vectors="f_23"> 
<DataArray  type="Float64"  Name="f_23"  NumberOfComponents="3" format="ascii">6.7835137031949609e-04 1.1730039445076307e-04 -9.8688044222435580e-06  6.2188868380800178e-04 1.6443771662874086e-04 -1.6581691637874020e-05  6.7320070441879455e-04 1.2056147091292243e-04 -9.8543979637524477e-06  7.5236830913864614e-02 2.1765350385750823e-04 4.6604839855775597e-04  6.2052233673951939e-04 1.5692886145476370e-04 -1.3975318803942913e-05  6.6654063737593163e-04 1.0886604480334580e-04 -5.5292515681224761e-06  7.2589854059725283e-04 8.2803666588297499e-05 -7.5673887060722537e-06  7.4554467522077408e-02 6.4290003262957554e-04 1.1140530146089805e-03  5.3070951852648757e-04 2.4960911417413957e-04 -3.1680979011502118e-05  5.8474384778740092e-04 1.9364881204607910e-04 -1.8860080175971171e-05  7.4683228274494182e-02 4.9340002808461361e-05 2.3581623860993673e-04  5.3836304746792557e-04 2.5298881152618707e-04 -3.0057499851344530e-05  4.0594971270272015e-04 3.1963825855804918e-04 -5.2342736707887235e-05  4.6241261257365092e-04 2.5278280745146274e-04 -2.8984671895036860e-05  7.4626316880950352e-02 -5.2636519602531183e-05 2.9857023212146800e-04  4.1967837569421130e-04 3.4752253252528961e-04 -5.5217401689541110e-05  2.4639657951166442e-04 3.6273128883277820e-04 -6.9405830458423834e-05  3.0072667011558305e-04 2.9207790137620747e-04 -3.6891185890148621e-05  7.4436446586925747e-02 -1.6436959760264924e-04 4.5120960599143048e-04  2.7495684226582921e-04 4.2635233743018737e-04 -8.3746559002433095e-05  3.5809349174166437e-05 3.6099001138273292e-04 -6.3605147830862323e-05  8.4441088149141361e-05 2.9943668767156594e-04 -2.9941363112986883e-05  7.4111734644270996e-02 -3.0816819336863192e-04 6.5425499256180505e-04  9.5134240139261314e-05 4.6524260939443020e-04 -9.5535880605137854e-05  -2.5059348284805848e-04 3.0441047173174608e-04 -1.9796598313542521e-05  -2.0669679201284320e-04 2.6535928411016368e-04 2.1985089152457175e-06  7.3698337285733148e-02 -4.4368673019935876e-04 8.3351295563216380e-04  -1.4968073382946970e-04 4.3263023409010443e-04 -6.0091982804368410e-05  -6.0806694729421745e-04 2.0778013452235885e-04 3.6945189049029706e-05  -5.6967482980852663e-04 1.9452496602216475e-04 4.3108726350544748e-05  7.3435336067755486e-02 -5.2493254914165292e-04 8.0116361535823889e-04  -4.8634249709561680e-04 3.2084650028181083e-04 2.1226212302743643e-05  -9.3165924931310829e-04 1.0556899451911799e-04 4.7681716520724040e-05  -9.1986955914013873e-04 1.1132035805894322e-04 4.8119018494083446e-05  7.3994530822862642e-02 -5.2029769047371051e-04 2.1972709382277235e-04  -8.5683095683012961e-04 1.6894797756052509e-04 5.2471413824921121e-05  -1.0937699998462484e-03 3.6049667122482209e-05 8.4070123653515077e-06  -1.1130167839815310e-03 4.1582287290550002e-05 2.7367028845349480e-05  7.6033196352900803e-02 -3.3745018398378046e-04 -5.6548105897533758e-04  -1.0920386290033562e-03 7.0890724091978902e-05 8.0175042435259398e-06  -1.1724441888852665e-03 5.0912029238070518e-05 4.1227811648742780e-05  -1.1755070843495500e-03 3.6050096366647222e-05 4.2594799473248744e-05  7.8130879085600999e-02 2.3951213913175830e-04 1.1486974150961833e-03  -1.1829894787977568e-03 5.6692553037882110e-05 3.1022167177630194e-05  7.3890412905224629e-04 7.8006387126088237e-05 -4.3767161204754548e-06  1.1485281556223836e-01 -1.1813487052462435e-04 4.3452160139455573e-04  7.9266760852408327e-04 5.3952224897145260e-05 -4.0572526291797252e-06  1.1397611100778002e-01 6.4500891481263328e-04 1.2193521782330869e-03  6.3858625555806301e-04 1.2747822800517777e-04 -5.2074681641971696e-06  1.1436322212541566e-01 -1.4981730908790821e-04 2.0735421010407100e-04  5.0375755858644497e-04 1.6836812994297864e-04 -4.6091884790500047e-06  1.1421650802691966e-01 -1.9177122926543398e-04 2.2032666334854403e-04  3.2150445592533288e-04 1.9410299420448657e-04 1.0253205463511883e-06  1.1405410209475078e-01 -2.7057720722464704e-04 2.7754467550100535e-04  7.7133927300720092e-05 1.9736921289911880e-04 1.8518805736162264e-05  1.1383495974151435e-01 -3.6559639258916266e-04 3.1957440728909100e-04  -2.4263441800965777e-04 1.7429159678858532e-04 5.0089033041122872e-05  1.1364829887762709e-01 -4.1400086644832008e-04 2.7182952265137613e-04  -6.2493052208452513e-04 1.3010916186084547e-04 7.7467992566090485e-05  1.1372668300348134e-01 -3.4027331819168967e-04 9.4016245007163242e-06  -9.8012338050897465e-04 7.9334690143492833e-05 6.5932589912395738e-05  1.1446036950368639e-01 -1.2358056427681088e-04 -5.4755165354837391e-04  -1.1695712481824660e-03 3.4224639939557356e-05 3.6822203978631147e-05  1.1610992011900138e-01 1.6773796538492524e-04 -8.1076804402430396e-04  -1.2271662336274787e-03 2.6181694877880062e-05 5.6589895782536082e-05  1.1815166500434866e-01 6.1539921898101581e-05 1.1914077869340349e-03  7.8113524656176956e-04 4.6566093308260980e-05 -3.5902770021625437e-07  1.2511710285484084e-01 -6.3933218593013955e-05 3.7811354010849847e-04  8.3557888696828139e-04 3.0559356771315172e-05 -1.5454651013784918e-06  1.2431855976595432e-01 4.6055593723699317e-04 1.1807261545775268e-03  6.7445415964745910e-04 7.8020073852057690e-05 1.8503817018628021e-06  1.2467975196137517e-01 -1.6025324461066236e-04 1.5560369651564083e-04  5.2920274291859274e-04 1.0358966407784617e-04 7.6711506411616625e-06  1.2451671723753618e-01 -1.7029211455401287e-04 1.5810419972519572e-04  3.3025085127742830e-04 1.1731874729365104e-04 1.9865951230232671e-05  1.2432834576757788e-01 -1.9226297073064242e-04 1.8719574096641127e-04  6.5768264405049909e-05 1.1370565643220035e-04 4.2252962005322748e-05  1.2412652780222826e-01 -2.1587150475344390e-04 1.8648213725844465e-04  -2.7101673319577260e-04 9.2362261380286414e-05 7.3159312227641388e-05  1.2403734354665057e-01 -1.9567794455661747e-04 9.1995294222588556e-05  -6.6084098309882587e-04 6.2299898414598962e-05 9.4289102086034292e-05  1.2429470595863623e-01 -7.7877655947759786e-05 -1.9143612958138288e-04  -1.0143971802420136e-03 3.7791478872911300e-05 7.5269407888344276e-05  1.2514602048331688e-01 1.3940961429297126e-04 -6.6103426726257255e-04  -1.2028751008331489e-03 1.6597705171032048e-05 4.1680648781670850e-05  1.2657262354990945e-01 3.3332527091898439e-04 -6.7694871545550444e-04  -1.2605239323353456e-03 1.7119318283133488e-05 6.0836981096853476e-05  1.2843404331014718e-01 7.9927779928222221e-05 1.0441344946004326e-03  8.0798198733193229e-04 2.4665557970881635e-05 2.2189448581567463e-06  1.1472226624055326e-01 -6.4048345069567085e-05 3.2592222142491072e-04  8.6028840100941585e-04 1.0240801966332359e-05 1.2410812979552457e-06  1.1401674759812103e-01 2.6449657053991438e-04 1.0954311238055114e-03  6.9980189304645005e-04 4.4812267990708757e-05 4.4358888106063282e-06  1.1433849886825012e-01 -1.2179325783848749e-04 1.3153681960378395e-04  5.4794124093847721e-04 6.3302563143583074e-05 1.0459482693952199e-05  1.1419681399074859e-01 -1.0046287317008028e-04 1.3001045684902412e-04  3.3623245832289082e-04 7.3579760078284703e-05 2.3480839975901387e-05  1.1401848956408445e-01 -7.6255086443182508e-05 1.5141588934455274e-04  5.6552924451420542e-05 7.0392064022554185e-05 4.5198265971150279e-05  1.1383654030650224e-01 -4.7231628445258034e-05 1.4375494857360934e-04  -2.9103236396620292e-04 5.3737590782186305e-05 7.2050456786998339e-05  1.1379237384234506e-01 6.5184881843431990e-06 5.2511335480075041e-05  -6.8136322233006922e-04 3.2478070766361300e-05 8.8464317148268041e-05  1.1409879870962598e-01 1.0185442085742281e-04 -1.9510013312831086e-04  -1.0281743563515359e-03 2.0929261055293006e-05 6.9204918771265553e-05  1.1491428331622906e-01 2.1894679628984746e-04 -5.4949045463938693e-04  -1.2166251433906043e-03 6.1003639208180674e-06 3.8493518302297401e-05  1.1610127144101558e-01 2.3337490281270611e-04 -4.4284568321215193e-04  -1.2772719483336835e-03 1.6735108949957086e-05 5.3659858387990769e-05  1.1752419872572781e-01 2.6104261021866139e-05 9.6660067302318695e-04  8.2982952773283858e-04 7.8082783197925163e-06 3.5856207820520288e-06  7.5991185656433299e-02 -5.7762663002802379e-05 2.5878030887606986e-04  8.7533324364197146e-04 1.1560578049034939e-06 4.3684357575112415e-06  7.5999356110157554e-02 3.3797383355630963e-04 8.8115754571573750e-04  7.2801120263411834e-04 2.3015878224786475e-05 3.4593864541218487e-06  7.5677679045018723e-02 -4.0989039708976677e-05 1.0779162927662023e-04  5.7727900538269243e-04 4.2613006459552003e-05 4.4400455497847182e-06  7.5598035592349899e-02 3.9419040827495318e-05 1.0070654035173073e-04  3.6043203512575814e-04 5.8707523982910201e-05 1.3030276527280365e-05  7.5497422603357234e-02 1.1327461903358812e-04 1.1449811774287501e-04  7.2060987037040247e-05 6.4578008583760388e-05 3.0052939349474445e-05  7.5382678385854773e-02 1.9126475963568453e-04 1.0063142190226331e-04  -2.8449269098292058e-04 5.8925032019952650e-05 5.1207520222335390e-05  7.5354666251356020e-02 2.7245232709035687e-04 1.9006703194818862e-05  -6.8066863739925561e-04 4.6772880421733638e-05 6.4499438016927315e-05  7.5562852160365637e-02 3.4290638705529111e-04 -1.6886051660558481e-04  -1.0323171958534015e-03 3.6511181255312561e-05 5.2166144741618019e-05  7.6132097166861395e-02 3.7599644512152305e-04 -3.9248040947545984e-04  -1.2239159128113763e-03 2.3086377994103779e-05 2.9178181593702760e-05  7.7073514238988047e-02 3.5770785499089825e-04 -2.6081791968040713e-04  -1.2858284050879943e-03 2.6086149937410602e-05 3.6510319117224807e-05  7.7501887472251993e-02 4.9671699907528601e-06 9.2764654731801845e-04  8.6242777028442948e-04 3.0988007706232637e-06 4.2876465808328835e-06  8.7420110589839098e-04 3.9003021826596805e-06 2.3469682651661596e-06  8.9749233879099488e-04 -4.0091526142677115e-06 4.5940577378046721e-06  8.9925483057199578e-04 -2.4488560962761429e-06 3.0682551346531357e-06  7.7930364884803180e-04 1.8485992358180994e-05 2.1171216244848456e-06  8.1218470892035956e-04 1.1714422659498444e-05 2.0076525125132621e-06  6.5051328922980961e-04 3.6209685180408496e-05 3.3221216982712577e-06  7.0219274520839567e-04 3.1896438231568487e-05 1.0199273450078479e-06  4.6252917829024231e-04 5.3864601039709306e-05 3.8488902828007339e-06  5.3898120653157972e-04 5.1941882665826886e-05 4.8633691699174580e-06  2.0341791064488335e-04 6.4133469444705620e-05 9.8469533244094214e-06  3.1037242658536892e-04 6.4630175265562611e-05 1.7505144460449126e-05  -1.3042655642019096e-04 6.3939893353943961e-05 2.2032145544936128e-05  9.0660552409826300e-06 6.5879983065810733e-05 3.8505287483990645e-05  -5.2585430901551031e-04 5.5072900255867111e-05 3.6804419343683959e-05  -3.6303965772686018e-04 5.7756938334312141e-05 6.1096519038366187e-05  -9.2267999787373051e-04 3.8823488081113568e-05 4.4495731342543478e-05  -7.7089503916948359e-04 4.7226985618530969e-05 6.9739408195327099e-05  -1.1901381269448972e-03 2.6533804823643678e-05 3.0050973026326533e-05  -1.0943028155881397e-03 3.3241895618623578e-05 5.0611943257581852e-05  -1.2784518341034403e-03 2.9840464609222669e-05 1.8850706795633499e-05  -1.2264627698898719e-03 3.2766407658004600e-05 3.4845590992350797e-05  1.1495398307315050e-01 1.7952065270237938e-04 2.2530395056869331e-04  6.1408350034085552e-04 1.5620230252910136e-04 -2.8430747923927090e-06  6.6294161400040955e-04 1.0526157022126306e-04 2.9671538342292890e-06  1.1420956452104991e-01 6.4552614338247169e-04 1.0241706061556719e-03  1.1451407438189423e-01 4.8769528151614877e-05 1.4965679606679738e-04  5.2559341852211267e-04 2.6496325506107708e-04 -1.2448024925298921e-05  1.1451209720490847e-01 -5.8288803419592934e-05 2.9601172815283701e-04  3.9883915790188461e-04 3.8895333284839873e-04 -3.2826381769127488e-05  1.1443720395397934e-01 -1.8637762648208097e-04 5.4138834913172284e-04  2.4774295753252399e-04 5.2494535185419126e-04 -6.5914521442449813e-05  1.1420369455203351e-01 -3.8546786327105464e-04 8.7690705765186387e-04  7.6388975600413607e-05 6.4874772533440839e-04 -1.0070318577607737e-04  1.1372911759732190e-01 -6.3486787039193681e-04 1.2153189951151721e-03  -1.3424390561731653e-04 6.9599928888662229e-04 -9.2283335494883526e-05  1.1300841406731563e-01 -7.6864195028802376e-04 1.2537051979585258e-03  -4.3221220817132714e-04 5.8880065600112213e-04 1.8566122458758965e-05  1.1302541415891292e-01 -7.8616464605455816e-04 5.1606406843501915e-04  -7.9876819690463750e-04 3.3631814516304153e-04 1.1638086613477505e-04  1.1592794955146306e-01 -6.9218401507122268e-04 -9.3991082105559912e-04  -1.0876060595181774e-03 1.3880076129160380e-04 -9.7027311236360809e-06  1.1889179617250091e-01 1.9379196870774381e-04 2.0001328404054505e-03  -1.2344081652666103e-03 9.9208435575768274e-05 5.5268313473108912e-06  1.7634475761463614e-01 -1.8068765249732336e-04 2.2177154689671891e-04  1.7592844459461546e-01 6.8561059333184429e-04 1.1462333425729652e-03  1.7596619919584133e-01 -1.7575828072076663e-04 1.5452742341041896e-04  1.7576696499820718e-01 -2.3802311226928203e-04 2.7577096638252446e-04  1.7565429836130889e-01 -3.7430007430572579e-04 4.2292476267955870e-04  1.7549467025137827e-01 -5.7657528877292470e-04 5.4377960723495284e-04  1.7527282243827261e-01 -7.6683464546984639e-04 5.1446522570833232e-04  1.7515862438341381e-01 -7.4238664047482795e-04 8.5123633624595071e-05  1.7579868302517881e-01 -3.2396877606792997e-04 -9.6619846660695450e-04  1.7806931392084147e-01 3.1771619232506978e-04 -1.7240418891558834e-03  1.8105306126097481e-01 -1.0326447881107975e-04 1.6883077130856359e-03  1.9325082624949083e-01 -7.9360067298921900e-05 1.8381210864696498e-04  1.9294577311419472e-01 4.9531253069856000e-04 1.1328018052155883e-03  1.9293368746199713e-01 -1.8056021876153983e-04 1.2680900315265291e-04  1.9271236487812898e-01 -2.0175989392947849e-04 2.3066479413716594e-04  1.9255737027665246e-01 -2.5753154304766643e-04 3.3529126765966774e-04  1.9239246202349647e-01 -3.4315422494371467e-04 3.9131580303165055e-04  1.9226368131286539e-01 -3.9484087655348445e-04 2.9932630250841224e-04  1.9242323398879921e-01 -2.8452066064027119e-04 -1.3128738361856628e-04  1.9340896632638505e-01 1.0220066060142404e-04 -1.0425765801904895e-03  1.9546157655598809e-01 6.1867034382092874e-04 -1.4468833927938809e-03  1.9802316705310055e-01 6.1170779644516534e-05 1.3599348495158081e-03  1.7618780063171147e-01 -6.6333550346095332e-05 1.4874644035573398e-04  1.7599391583253338e-01 2.7891669486554844e-04 1.0633328583323327e-03  1.7591973990261187e-01 -1.3371070050812882e-04 1.0604557800802189e-04  1.7573068333308706e-01 -1.1491533775595727e-04 1.9636294309964062e-04  1.7558311580214198e-01 -1.0399233042466247e-04 2.8144398292093853e-04  1.7543129122045736e-01 -1.0365275012335264e-04 3.2213615533631829e-04  1.7535144022489238e-01 -7.9878505564312172e-05 2.4025575723164968e-04  1.7561543515313044e-01 2.6220114579676730e-05 -1.0775892041611047e-04  1.7663408945607939e-01 2.5385119665566162e-04 -8.1794354521337001e-04  1.7834768358328451e-01 4.5371096688309222e-04 -9.4277729189453123e-04  1.8000832266908129e-01 -2.1623195038385337e-05 1.2755608429013412e-03  1.1487472684390451e-01 -3.4136039509003131e-05 7.6907882081176426e-05  1.1541685758703198e-01 3.6112328436298973e-04 8.7425223372005379e-04  1.1466169255671323e-01 -3.6990583984464400e-05 5.8299613931008223e-05  1.1455165343621336e-01 3.9852345409008176e-05 1.2872591568405091e-04  1.1448255774033317e-01 1.1586649929996335e-04 1.8920499988531883e-04  1.1440782430385882e-01 1.8650042456525275e-04 2.1339430063221514e-04  1.1436368478977971e-01 2.5934795545118144e-04 1.4281968468033318e-04  1.1454062597967517e-01 3.3981828147569668e-04 -1.2396224379633095e-04  1.1526955053290780e-01 4.1865855901759076e-04 -5.8161484247036587e-04  1.1659191734334232e-01 4.6594799380580444e-04 -4.7298237627177962e-04  1.1677337939559999e-01 6.9551358953041890e-06 1.3194720912932827e-03  8.7730706219937978e-04 5.7908974084348504e-06 -4.0656199661091277e-07  9.0089265110814259e-04 1.7797468658647602e-06 1.6872134859003226e-06  8.1630623558344765e-04 1.4349616409245459e-05 1.6167909710801048e-06  7.1112976192942408e-04 3.2438547113731852e-05 6.5271692878356251e-06  5.5974842069695090e-04 4.8818786210618716e-05 1.9096880341167147e-05  3.4638861922496101e-04 5.8837597092350023e-05 4.5115317971296026e-05  5.7912694697566891e-05 5.7413946308597266e-05 8.5995869075583978e-05  -3.1604846076984072e-04 4.5398597608372681e-05 1.3169104690066404e-04  -7.5470585037834027e-04 3.1473333786905378e-05 1.5295570257799185e-04  -1.1234672618210657e-03 1.8441061222295430e-05 1.1812929023445544e-04  -1.2697646839639914e-03 1.8506823259490326e-05 9.5046783309599012e-05  1.2530563718634830e-01 1.6250775870760859e-04 1.5074503035309420e-04  6.1823723013729214e-04 1.4578054315136937e-04 1.3655712994657127e-05  6.6959220617391864e-04 9.5251193001032744e-05 1.2122627910649879e-05  1.2461268357010025e-01 6.5801617262350911e-04 7.9600187251421361e-04  1.2493848826864765e-01 1.8486450894768790e-05 4.9251216502934050e-05  5.2619450300174400e-04 2.5569903942814886e-04 2.2507254591289761e-05  1.2503569837673492e-01 -8.6407910073134570e-05 1.5041425819739787e-04  3.9316595470715096e-04 3.9814842203506713e-04 2.5189696057944409e-05  1.2504875561218717e-01 -2.2149758797871115e-04 3.4426516392677885e-04  2.2997063759827420e-04 5.9120201688608843e-04 1.1932001374304826e-05  1.2488441514152843e-01 -4.7154747699359301e-04 6.6543114069679392e-04  4.9697731633705770e-05 8.4112062162312352e-04 -3.0940192715889415e-05  1.2437577347234709e-01 -9.4128214822574927e-04 1.1124660593007393e-03  -1.5421696887360151e-04 1.0891996725012850e-03 -8.9532243262792230e-05  1.2329390669142477e-01 -1.5144569623405004e-03 1.4228215696444725e-03  -4.4242055148621461e-04 1.1547330860271535e-03 -4.1375846709060371e-05  1.2216923367076687e-01 -1.1907518462980576e-03 9.5192128785595641e-04  -7.4458292915412705e-04 8.3252883550930792e-04 3.2526589176700658e-04  1.2579808624642380e-01 -1.0526851178304368e-03 -7.3120634302544592e-04  -1.0027048335431419e-03 3.7061503279032918e-04 6.0636518268683781e-05  1.3220148348846714e-01 -8.8186656637330419e-04 3.8125840700778289e-03  -1.1849913145893340e-03 2.4831610745754687e-04 -1.6080974103050954e-04  1.9333077051984660e-01 -2.0485083266323084e-04 1.9684094190059861e-04  1.9297427329376762e-01 6.9648287761847464e-04 9.0393014105790174e-04  1.9301699925488264e-01 -1.9619300839118477e-04 9.1548613118066312e-05  1.9286818803527322e-01 -2.7011857280551999e-04 1.9605679929509721e-04  1.9276913491139983e-01 -4.4353998318472299e-04 3.3876335046111765e-04  1.9257482019561958e-01 -7.5140401800025255e-04 4.7129664283870963e-04  1.9220377770062297e-01 -1.1893300985800785e-03 4.7101385005765431e-04  1.9173891288258557e-01 -1.4527804611081925e-03 1.7906242479493618e-05  1.9209829859745886e-01 -7.4538095136440156e-04 -1.2655709944236493e-03  1.9515072620683288e-01 9.2380992955284089e-04 -3.3563258299745048e-03  2.0020169593836792e-01 -4.4395109330935470e-04 2.3124219865844459e-03  2.1242159093179966e-01 -1.0042044177203238e-04 1.7923922743371003e-04  2.1217091957794665e-01 4.9325643481242009e-04 9.1636612577730247e-04  2.1216976815871366e-01 -1.9341655497663167e-04 8.1939407589993904e-05  2.1198360862802015e-01 -2.2403815244884250e-04 1.7110313592117360e-04  2.1183952145732646e-01 -3.0789183916013870e-04 2.6845184431455648e-04  2.1163854885717975e-01 -4.5392044420997140e-04 3.1645594765414449e-04  2.1134428271189537e-01 -6.0188019913378211e-04 2.1563797825859891e-04  2.1116083675944042e-01 -5.3277496474305277e-04 -2.3323914611468930e-04  2.1215317765971697e-01 1.2119187046827053e-04 -1.2642706691989294e-03  2.1530408402870460e-01 1.2518317113294993e-03 -2.9693491494645597e-03  2.1929388283820864e-01 3.3417863101329958e-05 1.3626001657702632e-03  1.9321778275305695e-01 -7.8904259017870956e-05 1.5817280788117994e-04  1.9307986115989989e-01 2.7035193983564475e-04 8.8930280062301040e-04  1.9301243554079350e-01 -1.4058639062864507e-04 6.8776671457761916e-05  1.9285707133427366e-01 -1.2265706912576693e-04 1.4480650054722271e-04  1.9272016790415197e-01 -1.2631732143232488e-04 2.2134502452770207e-04  1.9253949149861119e-01 -1.5212405111332915e-04 2.5105684711334528e-04  1.92