<?xml version="1.0"?>
<VTKFile type="UnstructuredGrid"  version="0.1"  >
<UnstructuredGrid>
<Piece  NumberOfPoints="539" NumberOfCells="2160">
<Points>
<DataArray  type="Float64"  NumberOfComponents="3"  format="ascii">0 0.2 0.2  0.1 0.2 0.2  0.1 0.3 0.2  0.1 0.3 0.3  0.1 0.2 0.3  0 0.2 0.3  0 0.3 0.2  0 0.3 0.3  0.2 0.2 0.2  0.2 0.3 0.2  0.2 0.3 0.3  0.2 0.2 0.3  0.3 0.2 0.2  0.3 0.3 0.2  0.3 0.3 0.3  0.3 0.2 0.3  0.4 0.2 0.2  0.4 0.3 0.2  0.4 0.3 0.3  0.4 0.2 0.3  0.5 0.2 0.2  0.5 0.3 0.2  0.5 0.3 0.3  0.5 0.2 0.3  0.6 0.2 0.2  0.6 0.3 0.2  0.6 0.3 0.3  0.6 0.2 0.3  0.7 0.2 0.2  0.7 0.3 0.2  0.7 0.3 0.3  0.7 0.2 0.3  0.8 0.2 0.2  0.8 0.3 0.2  0.8 0.3 0.3  0.8 0.2 0.3  0.9 0.2 0.2  0.9 0.3 0.2  0.9 0.3 0.3  0.9 0.2 0.3  1 0.2 0.2  1 0.3 0.2  1 0.3 0.3  1 0.2 0.3  0.1 0.4 0.2  0.1 0.4 0.3  0 0.4 0.2  0 0.4 0.3  0.2 0.4 0.2  0.2 0.4 0.3  0.3 0.4 0.2  0.3 0.4 0.3  0.4 0.4 0.2  0.4 0.4 0.3  0.5 0.4 0.2  0.5 0.4 0.3  0.6 0.4 0.2  0.6 0.4 0.3  0.7 0.4 0.2  0.7 0.4 0.3  0.8 0.4 0.2  0.8 0.4 0.3  0.9 0.4 0.2  0.9 0.4 0.3  1 0.4 0.2  1 0.4 0.3  0.1 0.5 0.2  0.1 0.5 0.3  0 0.5 0.2  0 0.5 0.3  0.2 0.5 0.2  0.2 0.5 0.3  0.3 0.5 0.2  0.3 0.5 0.3  0.4 0.5 0.2  0.4 0.5 0.3  0.5 0.5 0.2  0.5 0.5 0.3  0.6 0.5 0.2  0.6 0.5 0.3  0.7 0.5 0.2  0.7 0.5 0.3  0.8 0.5 0.2  0.8 0.5 0.3  0.9 0.5 0.2  0.9 0.5 0.3  1 0.5 0.2  1 0.5 0.3  0.1 0.6 0.2  0.1 0.6 0.3  0 0.6 0.2  0 0.6 0.3  0.2 0.6 0.2  0.2 0.6 0.3  0.3 0.6 0.2  0.3 0.6 0.3  0.4 0.6 0.2  0.4 0.6 0.3  0.5 0.6 0.2  0.5 0.6 0.3  0.6 0.6 0.2  0.6 0.6 0.3  0.7 0.6 0.2  0.7 0.6 0.3  0.8 0.6 0.2  0.8 0.6 0.3  0.9 0.6 0.2  0.9 0.6 0.3  1 0.6 0.2  1 0.6 0.3  0.1 0.7 0.2  0.1 0.7 0.3  0 0.7 0.2  0 0.7 0.3  0.2 0.7 0.2  0.2 0.7 0.3  0.3 0.7 0.2  0.3 0.7 0.3  0.4 0.7 0.2  0.4 0.7 0.3  0.5 0.7 0.2  0.5 0.7 0.3  0.6 0.7 0.2  0.6 0.7 0.3  0.7 0.7 0.2  0.7 0.7 0.3  0.8 0.7 0.2  0.8 0.7 0.3  0.9 0.7 0.2  0.9 0.7 0.3  1 0.7 0.2  1 0.7 0.3  0.1 0.8 0.2  0.1 0.8 0.3  0 0.8 0.2  0 0.8 0.3  0.2 0.8 0.2  0.2 0.8 0.3  0.3 0.8 0.2  0.3 0.8 0.3  0.4 0.8 0.2  0.4 0.8 0.3  0.5 0.8 0.2  0.5 0.8 0.3  0.6 0.8 0.2  0.6 0.8 0.3  0.7 0.8 0.2  0.7 0.8 0.3  0.8 0.8 0.2  0.8 0.8 0.3  0.9 0.8 0.2  0.9 0.8 0.3  1 0.8 0.2  1 0.8 0.3  0.1 0.3 0.4  0.1 0.2 0.4  0 0.2 0.4  0 0.3 0.4  0.2 0.3 0.4  0.2 0.2 0.4  0.3 0.3 0.4  0.3 0.2 0.4  0.4 0.3 0.4  0.4 0.2 0.4  0.5 0.3 0.4  0.5 0.2 0.4  0.6 0.3 0.4  0.6 0.2 0.4  0.7 0.3 0.4  0.7 0.2 0.4  0.8 0.3 0.4  0.8 0.2 0.4  0.9 0.3 0.4  0.9 0.2 0.4  1 0.3 0.4  1 0.2 0.4  0.1 0.4 0.4  0 0.4 0.4  0.2 0.4 0.4  0.3 0.4 0.4  0.4 0.4 0.4  0.5 0.4 0.4  0.6 0.4 0.4  0.7 0.4 0.4  0.8 0.4 0.4  0.9 0.4 0.4  1 0.4 0.4  0.1 0.5 0.4  0 0.5 0.4  0.2 0.5 0.4  0.3 0.5 0.4  0.4 0.5 0.4  0.5 0.5 0.4  0.6 0.5 0.4  0.7 0.5 0.4  0.8 0.5 0.4  0.9 0.5 0.4  1 0.5 0.4  0.1 0.6 0.4  0 0.6 0.4  0.2 0.6 0.4  0.3 0.6 0.4  0.4 0.6 0.4  0.5 0.6 0.4  0.6 0.6 0.4  0.7 0.6 0.4  0.8 0.6 0.4  0.9 0.6 0.4  1 0.6 0.4  0.1 0.7 0.4  0 0.7 0.4  0.2 0.7 0.4  0.3 0.7 0.4  0.4 0.7 0.4  0.5 0.7 0.4  0.6 0.7 0.4  0.7 0.7 0.4  0.8 0.7 0.4  0.9 0.7 0.4  1 0.7 0.4  0.1 0.8 0.4  0 0.8 0.4  0.2 0.8 0.4  0.3 0.8 0.4  0.4 0.8 0.4  0.5 0.8 0.4  0.6 0.8 0.4  0.7 0.8 0.4  0.8 0.8 0.4  0.9 0.8 0.4  1 0.8 0.4  0.1 0.3 0.5  0.1 0.2 0.5  0 0.2 0.5  0 0.3 0.5  0.2 0.3 0.5  0.2 0.2 0.5  0.3 0.3 0.5  0.3 0.2 0.5  0.4 0.3 0.5  0.4 0.2 0.5  0.5 0.3 0.5  0.5 0.2 0.5  0.6 0.3 0.5  0.6 0.2 0.5  0.7 0.3 0.5  0.7 0.2 0.5  0.8 0.3 0.5  0.8 0.2 0.5  0.9 0.3 0.5  0.9 0.2 0.5  1 0.3 0.5  1 0.2 0.5  0.1 0.4 0.5  0 0.4 0.5  0.2 0.4 0.5  0.3 0.4 0.5  0.4 0.4 0.5  0.5 0.4 0.5  0.6 0.4 0.5  0.7 0.4 0.5  0.8 0.4 0.5  0.9 0.4 0.5  1 0.4 0.5  0.1 0.5 0.5  0 0.5 0.5  0.2 0.5 0.5  0.3 0.5 0.5  0.4 0.5 0.5  0.5 0.5 0.5  0.6 0.5 0.5  0.7 0.5 0.5  0.8 0.5 0.5  0.9 0.5 0.5  1 0.5 0.5  0.1 0.6 0.5  0 0.6 0.5  0.2 0.6 0.5  0.3 0.6 0.5  0.4 0.6 0.5  0.5 0.6 0.5  0.6 0.6 0.5  0.7 0.6 0.5  0.8 0.6 0.5  0.9 0.6 0.5  1 0.6 0.5  0.1 0.7 0.5  0 0.7 0.5  0.2 0.7 0.5  0.3 0.7 0.5  0.4 0.7 0.5  0.5 0.7 0.5  0.6 0.7 0.5  0.7 0.7 0.5  0.8 0.7 0.5  0.9 0.7 0.5  1 0.7 0.5  0.1 0.8 0.5  0 0.8 0.5  0.2 0.8 0.5  0.3 0.8 0.5  0.4 0.8 0.5  0.5 0.8 0.5  0.6 0.8 0.5  0.7 0.8 0.5  0.8 0.8 0.5  0.9 0.8 0.5  1 0.8 0.5  0.1 0.3 0.6  0.1 0.2 0.6  0 0.2 0.6  0 0.3 0.6  0.2 0.3 0.6  0.2 0.2 0.6  0.3 0.3 0.6  0.3 0.2 0.6  0.4 0.3 0.6  0.4 0.2 0.6  0.5 0.3 0.6  0.5 0.2 0.6  0.6 0.3 0.6  0.6 0.2 0.6  0.7 0.3 0.6  0.7 0.2 0.6  0.8 0.3 0.6  0.8 0.2 0.6  0.9 0.3 0.6  0.9 0.2 0.6  1 0.3 0.6  1 0.2 0.6  0.1 0.4 0.6  0 0.4 0.6  0.2 0.4 0.6  0.3 0.4 0.6  0.4 0.4 0.6  0.5 0.4 0.6  0.6 0.4 0.6  0.7 0.4 0.6  0.8 0.4 0.6  0.9 0.4 0.6  1 0.4 0.6  0.1 0.5 0.6  0 0.5 0.6  0.2 0.5 0.6  0.3 0.5 0.6  0.4 0.5 0.6  0.5 0.5 0.6  0.6 0.5 0.6  0.7 0.5 0.6  0.8 0.5 0.6  0.9 0.5 0.6  1 0.5 0.6  0.1 0.6 0.6  0 0.6 0.6  0.2 0.6 0.6  0.3 0.6 0.6  0.4 0.6 0.6  0.5 0.6 0.6  0.6 0.6 0.6  0.7 0.6 0.6  0.8 0.6 0.6  0.9 0.6 0.6  1 0.6 0.6  0.1 0.7 0.6  0 0.7 0.6  0.2 0.7 0.6  0.3 0.7 0.6  0.4 0.7 0.6  0.5 0.7 0.6  0.6 0.7 0.6  0.7 0.7 0.6  0.8 0.7 0.6  0.9 0.7 0.6  1 0.7 0.6  0.1 0.8 0.6  0 0.8 0.6  0.2 0.8 0.6  0.3 0.8 0.6  0.4 0.8 0.6  0.5 0.8 0.6  0.6 0.8 0.6  0.7 0.8 0.6  0.8 0.8 0.6  0.9 0.8 0.6  1 0.8 0.6  0.1 0.3 0.7  0.1 0.2 0.7  0 0.2 0.7  0 0.3 0.7  0.2 0.3 0.7  0.2 0.2 0.7  0.3 0.3 0.7  0.3 0.2 0.7  0.4 0.3 0.7  0.4 0.2 0.7  0.5 0.3 0.7  0.5 0.2 0.7  0.6 0.3 0.7  0.6 0.2 0.7  0.7 0.3 0.7  0.7 0.2 0.7  0.8 0.3 0.7  0.8 0.2 0.7  0.9 0.3 0.7  0.9 0.2 0.7  1 0.3 0.7  1 0.2 0.7  0.1 0.4 0.7  0 0.4 0.7  0.2 0.4 0.7  0.3 0.4 0.7  0.4 0.4 0.7  0.5 0.4 0.7  0.6 0.4 0.7  0.7 0.4 0.7  0.8 0.4 0.7  0.9 0.4 0.7  1 0.4 0.7  0.1 0.5 0.7  0 0.5 0.7  0.2 0.5 0.7  0.3 0.5 0.7  0.4 0.5 0.7  0.5 0.5 0.7  0.6 0.5 0.7  0.7 0.5 0.7  0.8 0.5 0.7  0.9 0.5 0.7  1 0.5 0.7  0.1 0.6 0.7  0 0.6 0.7  0.2 0.6 0.7  0.3 0.6 0.7  0.4 0.6 0.7  0.5 0.6 0.7  0.6 0.6 0.7  0.7 0.6 0.7  0.8 0.6 0.7  0.9 0.6 0.7  1 0.6 0.7  0.1 0.7 0.7  0 0.7 0.7  0.2 0.7 0.7  0.3 0.7 0.7  0.4 0.7 0.7  0.5 0.7 0.7  0.6 0.7 0.7  0.7 0.7 0.7  0.8 0.7 0.7  0.9 0.7 0.7  1 0.7 0.7  0.1 0.8 0.7  0 0.8 0.7  0.2 0.8 0.7  0.3 0.8 0.7  0.4 0.8 0.7  0.5 0.8 0.7  0.6 0.8 0.7  0.7 0.8 0.7  0.8 0.8 0.7  0.9 0.8 0.7  1 0.8 0.7  0.1 0.3 0.8  0.1 0.2 0.8  0 0.2 0.8  0 0.3 0.8  0.2 0.3 0.8  0.2 0.2 0.8  0.3 0.3 0.8  0.3 0.2 0.8  0.4 0.3 0.8  0.4 0.2 0.8  0.5 0.3 0.8  0.5 0.2 0.8  0.6 0.3 0.8  0.6 0.2 0.8  0.7 0.3 0.8  0.7 0.2 0.8  0.8 0.3 0.8  0.8 0.2 0.8  0.9 0.3 0.8  0.9 0.2 0.8  1 0.3 0.8  1 0.2 0.8  0.1 0.4 0.8  0 0.4 0.8  0.2 0.4 0.8  0.3 0.4 0.8  0.4 0.4 0.8  0.5 0.4 0.8  0.6 0.4 0.8  0.7 0.4 0.8  0.8 0.4 0.8  0.9 0.4 0.8  1 0.4 0.8  0.1 0.5 0.8  0 0.5 0.8  0.2 0.5 0.8  0.3 0.5 0.8  0.4 0.5 0.8  0.5 0.5 0.8  0.6 0.5 0.8  0.7 0.5 0.8  0.8 0.5 0.8  0.9 0.5 0.8  1 0.5 0.8  0.1 0.6 0.8  0 0.6 0.8  0.2 0.6 0.8  0.3 0.6 0.8  0.4 0.6 0.8  0.5 0.6 0.8  0.6 0.6 0.8  0.7 0.6 0.8  0.8 0.6 0.8  0.9 0.6 0.8  1 0.6 0.8  0.1 0.7 0.8  0 0.7 0.8  0.2 0.7 0.8  0.3 0.7 0.8  0.4 0.7 0.8  0.5 0.7 0.8  0.6 0.7 0.8  0.7 0.7 0.8  0.8 0.7 0.8  0.9 0.7 0.8  1 0.7 0.8  0.1 0.8 0.8  0 0.8 0.8  0.2 0.8 0.8  0.3 0.8 0.8  0.4 0.8 0.8  0.5 0.8 0.8  0.6 0.8 0.8  0.7 0.8 0.8  0.8 0.8 0.8  0.9 0.8 0.8  1 0.8 0.8  </DataArray>
</Points>
<Cells>
[...]
<PointData  Vectors="f_23"> 
<DataArray  type="Float64"  Name="f_23"  NumberOfComponents="3" format="ascii">-3.0963143800137480e-04 -1.0646407925786830e-04 -1.0186502511983579e-06  -2.5453114495602581e-04 -1.5957316570991312e-04 -5.4898677239163851e-06  -3.0305212888373593e-04 -1.1196766814534109e-04 -1.1155484488757855e-05  8.1672345784556108e-02 -1.5068215330006193e-04 -4.0305023438539820e-04  -2.6091615339665262e-04 -1.5603476390272527e-04 -8.2842788505953741e-06  -3.1123414382212285e-04 -1.0699601846091410e-04 -5.0287880388086455e-06  -3.5298205103370797e-04 -6.7063386091198527e-05 -8.9379927671566964e-06  8.2075689778489794e-02 -6.4652030881738251e-04 -1.1137394416565337e-03  -1.8514412477667734e-04 -2.4157639850675124e-04 4.7739244657344151e-06  -2.2979708609369194e-04 -1.8191345657046833e-04 -1.0804718106896157e-05  8.2202190725646287e-02 8.7294596791210334e-06 -1.7748354051831832e-04  -1.8631975981847724e-04 -2.5375947697926440e-04 9.2247955372825225e-07  -1.0930869720194465e-04 -3.0707700992383064e-04 2.9511175094887075e-05  -1.5029431557454244e-04 -2.3777052145960729e-04 -7.2838314034596629e-07  8.2190150729765987e-02 1.1028835389734476e-04 -2.2605760205321191e-04  -9.8438047325965516e-05 -3.4681798444424663e-04 3.2305769228317385e-05  -3.5518850362312122e-05 -3.4257343746469597e-04 6.9166610440355296e-05  -6.3752260164044207e-05 -2.7041229590637068e-04 2.1984823214698965e-05  8.2296536551136987e-02 2.2611930022028352e-04 -3.4627604729938204e-04  -1.3054244750622673e-05 -4.2197983500424701e-04 9.4797861222868730e-05  2.4021286072259999e-05 -3.2935172130802354e-04 1.1030837968565972e-04  1.7927732577401108e-05 -2.6776398306025128e-04 5.2400664506540179e-05  8.2526537950378495e-02 3.7678013747377125e-04 -5.0810759279806556e-04  4.3611430126593278e-05 -4.5215307109517592e-04 1.7893561166299675e-04  7.6747047818620959e-05 -2.5797645422197837e-04 1.2750000515751646e-04  9.1675061069851127e-05 -2.2112440496780206e-04 7.5528602864430834e-05  8.2860492921106199e-02 5.1848695798517911e-04 -6.6561024768581789e-04  6.3996579510160862e-05 -4.0376791166221368e-04 2.4489442132517272e-04  1.6005265759771285e-04 -1.5057754550085037e-04 9.9182340872315969e-05  1.7497044941730465e-04 -1.4001312861669415e-04 7.0624097484400916e-05  8.3148282667982604e-02 5.9543100952152528e-04 -6.8971733887424839e-04  9.5765374110367877e-05 -2.7623975820620578e-04 2.3134481892411057e-04  3.2533355535144595e-04 -6.1249602797815050e-05 4.7387120191391059e-05  3.1068103287553545e-04 -6.0303436971793028e-05 3.6350273228606172e-05  8.2879063640650646e-02 5.5288327795867886e-04 -3.0691568944265000e-04  2.2117052399956466e-04 -1.3789947373643336e-04 1.1774263498285526e-04  5.1791247779338107e-04 -2.0856160380446853e-05 2.8392490192028497e-05  4.9975909967287587e-04 -2.0785559057909136e-05 2.5837277793513060e-05  8.1446279515773656e-02 2.9872378172804626e-04 2.3798834522203803e-04  4.2916524810171356e-04 -4.5946618385055480e-05 6.5463084757258009e-05  6.2374722159829659e-04 -5.3469027669610492e-06 4.4713427975749062e-05  6.2751274668089994e-04 -5.8774958491784975e-06 2.4994055474047558e-05  7.9645531844778988e-02 -1.6836487324819191e-04 -1.4734195100078234e-03  5.9018785116569039e-04 -2.8659843605968293e-05 6.0466363449297188e-05  -3.6584419987786279e-04 -6.8032125697779647e-05 -1.7972245216503746e-05  1.1454698269087310e-01 1.9849987701284737e-04 -3.8371605519191791e-04  -4.1178289813688926e-04 -3.9650223486523932e-05 -1.2388220379079554e-05  1.1538351178033407e-01 -6.3581784661164808e-04 -1.1805052317530619e-03  -2.8537574416327271e-04 -1.1682790219246377e-04 -2.5391232228676452e-05  1.1499380125832132e-01 2.1009042482986767e-04 -1.3903957851512904e-04  -1.8846800077572330e-04 -1.5813937875363708e-04 -2.7954135747779097e-05  1.1506771287094389e-01 2.4131517336578099e-04 -1.2663975394008525e-04  -7.7071403386378751e-05 -1.8182778736152523e-04 -2.0940972930717697e-05  1.1514134070043319e-01 3.1622887689245572e-04 -1.4322954743241494e-04  3.7170755666870066e-05 -1.8114850577098592e-04 -3.4608523132539717e-06  1.1527256815940128e-01 4.1105167300917915e-04 -1.4656856130840627e-04  1.4207344894598642e-04 -1.5153047974044334e-04 1.9201937287822583e-05  1.1542216229943204e-01 4.5817406870060439e-04 -1.0337034179502835e-04  2.3821554119688219e-04 -9.7167951458006105e-05 3.0894309454274826e-05  1.1547859569321711e-01 3.7460615147410435e-04 3.8336151569743349e-05  3.6073486347974851e-04 -4.0230027038024861e-05 1.7275307760198019e-05  1.1524230880166451e-01 1.3016377332779005e-04 2.8647742972867023e-04  5.2710168775512844e-04 -1.5826113981556290e-05 1.5147796298230816e-05  1.1450089234167113e-01 -1.9775786147119458e-04 1.6061751397277043e-04  6.3968477522039120e-04 -4.7496591620413262e-06 1.4704049179177458e-05  1.1302795355603561e-01 -2.0414271893441096e-05 -2.0669450955248902e-03  -4.0780704140015955e-04 -4.3961268336734060e-05 -1.8979145817574004e-05  1.2571982537313772e-01 1.3292167847897061e-04 -3.1909544530065267e-04  -4.4842154315335292e-04 -2.4595608766696979e-05 -1.2272259195281451e-05  1.2650556097982626e-01 -4.4853387424611998e-04 -1.1145838966905336e-03  -3.2637373355064988e-04 -7.8072504324160226e-05 -2.8551973765697120e-05  1.2611484820562224e-01 2.0979502477456156e-04 -7.7233263102136293e-05  -2.1672388585614180e-04 -1.0895280768391367e-04 -3.5283435175237575e-05  1.2621257326438109e-01 2.0361609595173353e-04 -5.0223358772055748e-05  -8.6652171210442630e-05 -1.2759178758050174e-04 -3.4006598410904168e-05  1.2631800431948631e-01 2.1634649431965643e-04 -3.6479037990700105e-05  5.0480723890218640e-05 -1.2916853587849038e-04 -2.1675028789792136e-05  1.2643978647451276e-01 2.3702500852513186e-04 -3.4653961878914359e-08  1.7769044447254388e-04 -1.1085070524720593e-04 3.5113969510204530e-07  1.2650963345528077e-01 2.2137628609523999e-04 7.7627264813765501e-05  2.8559695971599948e-04 -7.3088553649778843e-05 1.8631116276913830e-05  1.2642100336151546e-01 1.2018218153732532e-04 2.1621003762556189e-04  3.9911576484966197e-04 -2.6958181218593393e-05 1.2773661758659812e-05  1.2612376001893394e-01 -6.8147331460254029e-05 3.4091754408968351e-04  5.4308631743952478e-04 -9.9133796607119212e-06 1.1017054829568846e-05  1.2569939355012821e-01 -2.5411036260404330e-04 -7.7798973821010338e-05  6.3957047959618016e-04 3.2799520111362845e-07 1.4437004866864152e-05  1.2448093306846189e-01 6.2860739886337573e-05 -2.0761310577217702e-03  -4.3717409153463412e-04 -2.8393015743283891e-05 -1.6628705646858698e-05  1.1460707352709086e-01 1.1066861308577920e-04 -2.7714616183015613e-04  -4.7230805059369130e-04 -1.7955042899998444e-05 -1.1164329917631146e-05  1.1526573577486945e-01 -2.6939459515038785e-04 -1.0227466524116849e-03  -3.5829150136238672e-04 -5.4191015923647678e-05 -2.3743155935700570e-05  1.1497655131802761e-01 1.4382207293801773e-04 -5.5345374663825734e-05  -2.4197653591972340e-04 -8.0112102158450232e-05 -2.8501791312223233e-05  1.1506509446868991e-01 1.0811940287295722e-04 -2.3315559197762121e-05  -9.9557314414877010e-05 -9.8854749509323623e-05 -2.6563837039725872e-05  1.1516720682375936e-01 7.4072046031457256e-05 -1.9820320923707918e-06  5.3497855980874241e-05 -1.0583558121649758e-04 -1.4820416713572054e-05  1.1527145528679937e-01 4.1718910126350230e-05 4.1865720004089993e-05  1.9846570785277655e-04 -9.8480962402839434e-05 6.2135911816364320e-06  1.1529269992099908e-01 -1.9437493716220464e-06 1.2009062810149029e-04  3.2110897101113675e-04 -7.4561946808872535e-05 2.4810423620071907e-05  1.1513930616454272e-01 -5.9441677963759753e-05 2.3663784285390038e-04  4.3493228918471672e-04 -3.4620610558375590e-05 1.9169370699544099e-05  1.1483588242387902e-01 -1.0089369463592845e-04 2.7923774820301755e-04  5.5726636454524431e-04 -1.2640050371716900e-05 1.2352374649651719e-05  1.1457194195647069e-01 -6.4333141452694375e-05 -2.1780884851600106e-04  6.3663185060251748e-04 -3.1656596327669753e-06 1.6700055881246258e-05  1.1372811871061228e-01 2.1409217661247661e-04 -1.8865148982324686e-03  -4.5768380413875126e-04 -1.8039539011967673e-05 -1.6316497976147108e-05  8.0809766883415651e-02 5.7324194136310924e-05 -2.5429406032456453e-04  -4.8675293216387058e-04 -1.0196102906789900e-05 -1.2319007307029649e-05  8.0672130137109443e-02 -3.9325327827752704e-04 -8.6873128851050919e-04  -3.8829916932190696e-04 -3.5966461230470491e-05 -1.8326487693640186e-05  8.1124429604591958e-02 3.3916106863452432e-05 -6.3460056135615733e-05  -2.7294898078264858e-04 -6.0636166113819952e-05 -1.8562993559430241e-05  8.1157594084567755e-02 -5.1905874599448201e-05 -3.1893197465394711e-05  -1.2364617883258512e-04 -8.4126950722635804e-05 -1.4234886333033595e-05  8.1189043928840368e-02 -1.3441310533876270e-04 -9.3914589361424649e-06  4.0797868990218809e-05 -9.8764752957711458e-05 -2.8328457091270908e-06  8.1220092935621616e-02 -2.1854336453615059e-04 4.2945254933225967e-05  1.9908907755760810e-04 -1.0095544912171374e-04 1.6375400778415671e-05  8.1183899580150265e-02 -2.9617396572094635e-04 1.3536297898602087e-04  3.3717121806847901e-04 -8.8658077574666841e-05 3.4572500495779614e-05  8.1021198977363942e-02 -3.4000876509409668e-04 2.5412153523558128e-04  4.6532335054924839e-04 -6.0427688192374733e-05 3.0901183081097396e-05  8.0761829068352664e-02 -3.0843846340397943e-04 2.7731359169216478e-04  5.7766835766169457e-04 -2.8159935034223723e-05 1.6693190630343594e-05  8.0441225860617332e-02 -2.3508256086427693e-04 -1.2309991708555043e-04  6.4111712123574385e-04 -1.5854877062856245e-05 1.9341469470387736e-05  8.0312336730145234e-02 1.9807839759100596e-04 -1.5059013785402753e-03  -4.8090202917856040e-04 -1.8975618460168010e-05 -5.5915667721964423e-06  -4.9109202695458661e-04 -8.9396136787242705e-06 -1.1223727466559870e-05  -4.9693011798049747e-04 -7.4791442325538059e-06 -9.9864127614282665e-06  -4.9758060214344011e-04 -1.3737287296043664e-05 -1.0252715245252781e-05  -4.2498052115967915e-04 -3.1247977616834952e-05 -1.3993511513912315e-05  -4.4811940078792192e-04 -2.2646627680818894e-05 -1.7709664530508088e-05  -3.2672203849584816e-04 -5.0314424601949025e-05 -1.8438624934279854e-05  -3.6457444034566200e-04 -4.3014971201368247e-05 -2.1113183059437667e-05  -1.8965853005104333e-04 -7.2715050139257883e-05 -1.8124710517362313e-05  -2.3880524810920809e-04 -6.8379105439438055e-05 -2.0141509243393604e-05  -2.9315806184476770e-05 -8.8886923843116389e-05 -1.3754335014635298e-05  -8.4467994806997415e-05 -8.8553086435057249e-05 -1.3291483946748339e-05  1.3465045210676123e-04 -9.4323688777447713e-05 -2.9863568541551577e-06  7.8927947466273025e-05 -9.8355946610293639e-05 2.3572880721798787e-06  2.8156788644140919e-04 -8.6634487091838731e-05 1.3750895168309091e-05  2.2835580132910758e-04 -9.4688051174659588e-05 2.4444402153978729e-05  4.1000347551487041e-04 -6.3391231308338901e-05 2.4189452675353096e-05  3.5249103994319033e-04 -7.4448085692529749e-05 3.7637046663399956e-05  5.5779476507742981e-04 -3.1271666592643096e-05 1.8554421193719600e-05  4.8673790465705895e-04 -4.5466050312400318e-05 2.8267216959185852e-05  6.3764496376465330e-04 -2.1556817216437016e-05 2.9133307853979576e-05  5.6735964582271467e-04 -2.0741723232206518e-05 2.3395000161459698e-05  1.1444563534211449e-01 -1.4956739085486209e-04 -1.2534929575859852e-04  -2.6571998554740333e-04 -1.6054074044321681e-04 -2.0225095867595042e-05  -3.2093809858588533e-04 -1.0610400963638408e-04 -1.5891257365692347e-05  1.1514068180377406e-01 -6.2951722932560246e-04 -9.8294117985749736e-04  1.1486060680073423e-01 -1.5770712199086655e-05 -4.8327929647191523e-05  -1.7408246686578357e-04 -2.7333341506680830e-04 -1.8211621187059733e-05  1.1480391243663755e-01 8.5736718165923439e-05 -1.6502585446672186e-04  -4.8636358237588208e-05 -4.0191216609983965e-04 1.6701132604061664e-05  1.1481127331804193e-01 2.1298061030759869e-04 -3.6265195055511278e-04  8.3283294747851948e-05 -5.4202349934065648e-04 1.0952076405901203e-04  1.1496667543192415e-01 4.2052478766224465e-04 -6.5909992591170669e-04  1.6704140787054031e-04 -6.6561252664876084e-04 2.7419169562523820e-04  1.1537536202652733e-01 6.8817004281634074e-04 -1.0243969714212229e-03  1.4506574014437159e-04 -7.0249127833700846e-04 4.7859925263403122e-04  1.1615063957965745e-01 8.3227094133262532e-04 -1.2536481572473399e-03  5.1531143465670623e-05 -5.7719372064681700e-04 5.9275148359064407e-04  1.1653740715100887e-01 8.1050789364528768e-04 -9.8582044474198726e-04  8.4357877984944004e-05 -3.3203719996534206e-04 4.1222513710203362e-04  1.1444541329292200e-01 6.0673257812508775e-04 -9.5482556031443102e-05  2.5372582037814975e-04 -1.2475946674128199e-04 1.7882474955354912e-04  1.1198599420066223e-01 -3.5662748903276810e-04 -3.1944816637976725e-03  4.3927324992582679e-04 -8.2906608434747824e-05 1.9615842175430486e-04  1.7059590932700563e-01 2.6591471465367734e-04 -8.3253435534490740e-05  1.7097956075914178e-01 -6.4034211996728211e-04 -1.0396858559940149e-03  1.7093067324566996e-01 2.4026833714949254e-04 1.1968040677201792e-07  1.7106783938765593e-01 2.8726792188193631e-04 -7.9186517409336944e-05  1.7110581095519606e-01 4.1874907192183052e-04 -1.7533609034065426e-04  1.7119611332144949e-01 6.2707599703142156e-04 -2.8459130166661351e-04  1.7140945851893996e-01 8.3046592258566841e-04 -3.7260395387474373e-04  1.7172678685705473e-01 8.1110255858243818e-04 -3.1755488053389412e-04  1.7177029772988453e-01 3.6387817947906457e-04 -2.3617004721708548e-06  1.7070625596354366e-01 -3.3778542320396412e-04 -8.4060469139723046e-05  1.6839904269524988e-01 1.0010783247731207e-04 -3.8454605809350177e-03  1.8950830324558904e-01 1.6874049269820750e-04 -4.2382043789205953e-05  1.8978544592148627e-01 -4.4160871601455057e-04 -9.9339238895080955e-04  1.8979404190341295e-01 2.4892034799925400e-04 4.1419916727140519e-05  1.8996098795373373e-01 2.4917807947662197e-04 -1.6071356341992015e-05  1.9004840491310879e-01 2.9319009039787395e-04 -7.0701596004563424e-05  1.9015583390812221e-01 3.7612718993420408e-04 -1.2838591174369520e-04  1.9030407822904247e-01 4.3606767903851985e-04 -1.8906570525268517e-04  1.9039832567704440e-01 3.5043656197507756e-04 -1.9641943297094960e-04  1.9017189402852494e-01 5.2904293907871057e-06 -1.0092543959864979e-04  1.8944664170302861e-01 -4.8821486036182822e-04 -6.1166078744539804e-04  1.8763260910127788e-01 1.3516375394757030e-04 -3.8277066403557161e-03  1.7066633630222963e-01 1.3022416535809288e-04 -3.0600687330287417e-05  1.7081842110048617e-01 -2.5142747556875249e-04 -9.2601691092594090e-04  1.7092556459498920e-01 1.7826494334100690e-04 4.6854756827534896e-05  1.7107331738145490e-01 1.4377567022026065e-04 3.1238506946485146e-06  1.7116085738260278e-01 1.1959374235046635e-04 -3.1191865540555454e-05  1.7125612953752439e-01 1.0982653966731956e-04 -6.6701936726328636e-05  1.7134669958475546e-01 8.7598995612093349e-05 -1.1744020202439381e-04  1.7131054185814748e-01 1.5198254620587966e-05 -1.6268557334893398e-04  1.7098945692644532e-01 -1.1997838021733915e-04 -1.8081811503770982e-04  1.7051512822459206e-01 -2.2299590873162511e-04 -8.6276623942521343e-04  1.6954839270692731e-01 3.6630978952306953e-04 -3.4502834389877257e-03  1.1445253484517695e-01 4.8649193261671099e-05 -1.4028124483477961e-05  1.1387429874883967e-01 -3.8947436847454672e-04 -7.8097911932174856e-04  1.1465627010603728e-01 4.8599797172176089e-05 3.7097854953095991e-05  1.1473169932144082e-01 -3.1548460582361404e-05 3.8646279845497135e-06  1.1474962908871042e-01 -1.1717884150982783e-04 -7.3925433551405988e-06  1.1476008669130849e-01 -1.9955601130898181e-04 8.2300101302349677e-07  1.1475897848105844e-01 -2.8081413576481177e-04 2.4296992445923808e-05  1.1465679689386439e-01 -3.4791717123709844e-04 7.2136890392937754e-05  1.1433067559506617e-01 -3.5573206354943637e-04 7.1493742475911646e-05  1.1385624241021075e-01 -2.8335907759834350e-04 -5.7538423516434250e-04  1.1412561952360063e-01 3.3967183623368098e-04 -2.6157215169941919e-03  -5.0425451513525822e-04 -8.7343389868519654e-06 -1.0742171298920013e-05  -5.1280093011436237e-04 -1.2330774246909716e-05 -9.4962029558911308e-06  -4.5822907957488145e-04 -2.0512775023743299e-05 -2.1580708291743978e-05  -3.7175947521111594e-04 -3.5089879562753342e-05 -3.1631938066135840e-05  -2.4090966675948289e-04 -5.4043308164228467e-05 -3.2351551725407584e-05  -7.8421031173223603e-05 -6.9817503609935871e-05 -2.0290681513559894e-05  9.5699355610379827e-05 -7.7910916929834582e-05 7.2668001609108503e-06  2.4857858173777232e-04 -7.4902956338526391e-05 4.5207888784492783e-05  3.5267246003561816e-04 -5.7204675125851948e-05 7.0180298720093064e-05  4.5628136968617713e-04 -3.2742662870519480e-05 5.7205384537234817e-05  5.1986549137266001e-04 -1.1432455160755233e-05 5.5349853432974594e-05  1.2554846968705169e-01 -1.4237386712352953e-04 -3.4529087910832715e-05  -2.8021241393602029e-04 -1.5378644219703948e-04 -3.3241117465841743e-05  -3.3983159325158411e-04 -9.8539990736721679e-05 -2.4646915508386655e-05  1.2621657238288012e-01 -6.3036856954661101e-04 -7.4217471265997938e-04  1.2591454760919096e-01 -3.5510871724394119e-08 8.0004853142524090e-05  -1.6757380550935265e-04 -2.7164082075751899e-04 -4.4470586031705137e-05  1.2579764472249977e-01 9.3626624187408738e-05 2.4461106533649156e-05  8.4201729773086164e-06 -4.2478449061975645e-04 -2.2000329583952140e-05  1.2575832336026613e-01 2.2280218769958718e-04 -1.0175700263947501e-04  2.2862067279899145e-04 -6.3064344355613243e-04 7.5052498661946072e-05  1.2586605842133455e-01 4.8385748191489262e-04 -3.6894304878685991e-04  4.2543084587724533e-04 -8.9082653794694897e-04 3.0552334652104014e-04  1.2625033881568720e-01 9.9300968656823780e-04 -8.5295720539053336e-04  4.4196117944294276e-04 -1.1365962839034235e-03 7.1708830937282060e-04  1.2718205508596148e-01 1.6152024657702100e-03 -1.4240038781521771e-03  1.3256358965843762e-04 -1.1813505105263274e-03 1.2208761374594304e-03  1.2850975466074835e-01 1.2542279725855292e-03 -1.6016233922896395e-03  -1.5303169156640492e-04 -8.4423663503914556e-04 1.4136989574922341e-03  1.2567705932406562e-01 9.8088216797462464e-04 -1.2455002419459627e-03  -1.8449689981262716e-04 -3.6740549062391444e-04 5.6367339553124415e-04  1.1969133717604401e-01 6.7711601086485748e-04 -6.2399843913126000e-03  -1.7726898980687363e-04 -2.5683252938959008e-04 7.8565943499402970e-04  1.8945784638959523e-01 2.7526761575914148e-04 -2.5875741496700052e-05  1.8978391365120131e-01 -6.3320395151640846e-04 -7.7832542608310908e-04  1.8976647051438136e-01 2.5072052794440977e-04 1.0583155976081891e-04  1.8989420976136734e-01 3.0743275924997345e-04 5.8480033405345807e-05  1.8995738455543984e-01 4.7642010093252533e-04 -1.9402201047862255e-05  1.9009137032785386e-01 7.9993414070140905e-04 -1.4559909104868777e-04  1.9037139494957395e-01 1.2770812913127619e-03 -3.2494113070654073e-04  1.9079635212987830e-01 1.5845632462302235e-03 -4.3113125994433176e-04  1.9085672536619791e-01 8.7665232544624342e-04 -2.6527684801259770e-04  1.8900617376283435e-01 -8.5714242159324488e-04 1.6532959243611917e-05  1.8461981277694051e-01 4.9459542132319445e-04 -6.3838783207876785e-03  2.1104396891827146e-01 1.8942955183280893e-04 2.5451780783720157e-06  2.1125783831764289e-01 -4.1177289282394859e-04 -7.5350324679449173e-04  2.1130375623272402e-01 2.6505588114897143e-04 1.3340859118932810e-04  2.1147775720837311e-01 2.7367928519390910e-04 1.0424525059527629e-04  2.1159081439908831e-01 3.4318054653595007e-04 6.7442556049510075e-05  2.1173948717895730e-01 4.8360120678815892e-04 5.4927048969720609e-06  2.1196984648424769e-01 6.3723050428189513e-04 -1.2426955001101033e-04  2.1217081903323304e-01 5.9274255685203296e-04 -3.3027895550690562e-04  2.1166839349930380e-01 -5.6408803857141021e-06 -5.4854649108516864e-04  2.0983734447378016e-01 -1.0746555530512173e-03 -7.4244804503526538e-04  2.0660207173887893e-01 2.1959862318009953e-04 -5.8586699298034169e-03  1.8948900772443261e-01 1.5102616110370629e-04 6.2740240234343212e-06  1.8958471486054390e-01 -2.0912181523456192e-04 -7.1421980815810368e-04  1.8971890676527420e-01 1.9938076600675564e-04 1.2995587459397270e-04  1.8987263519241987e-0