<?xml version="1.0"?>
<VTKFile type="UnstructuredGrid"  version="0.1"  >
<UnstructuredGrid>
<Piece  NumberOfPoints="1331" NumberOfCells="6000">
<Points>
<DataArray  type="Float64"  NumberOfComponents="3"  format="ascii">0 0 0  0.1 0 0  0.2 0 0  0.3 0 0  0.4 0 0  0.5 0 0  0.6 0 0  0.7 0 0  0.8 0 0  0.9 0 0  1 0 0  0 0.1 0  0.1 0.1 0  0.2 0.1 0  0.3 0.1 0  0.4 0.1 0  0.5 0.1 0  0.6 0.1 0  0.7 0.1 0  0.8 0.1 0  0.9 0.1 0  1 0.1 0  0 0.2 0  0.1 0.2 0  0.2 0.2 0  0.3 0.2 0  0.4 0.2 0  0.5 0.2 0  0.6 0.2 0  0.7 0.2 0  0.8 0.2 0  0.9 0.2 0  1 0.2 0  0 0.3 0  0.1 0.3 0  0.2 0.3 0  0.3 0.3 0  0.4 0.3 0  0.5 0.3 0  0.6 0.3 0  0.7 0.3 0  0.8 0.3 0  0.9 0.3 0  1 0.3 0  0 0.4 0  0.1 0.4 0  0.2 0.4 0  0.3 0.4 0  0.4 0.4 0  0.5 0.4 0  0.6 0.4 0  0.7 0.4 0  0.8 0.4 0  0.9 0.4 0  1 0.4 0  0 0.5 0  0.1 0.5 0  0.2 0.5 0  0.3 0.5 0  0.4 0.5 0  0.5 0.5 0  0.6 0.5 0  0.7 0.5 0  0.8 0.5 0  0.9 0.5 0  1 0.5 0  0 0.6 0  0.1 0.6 0  0.2 0.6 0  0.3 0.6 0  0.4 0.6 0  0.5 0.6 0  0.6 0.6 0  0.7 0.6 0  0.8 0.6 0  0.9 0.6 0  1 0.6 0  0 0.7 0  0.1 0.7 0  0.2 0.7 0  0.3 0.7 0  0.4 0.7 0  0.5 0.7 0  0.6 0.7 0  0.7 0.7 0  0.8 0.7 0  0.9 0.7 0  1 0.7 0  0 0.8 0  0.1 0.8 0  0.2 0.8 0  0.3 0.8 0  0.4 0.8 0  0.5 0.8 0  0.6 0.8 0  0.7 0.8 0  0.8 0.8 0  0.9 0.8 0  1 0.8 0  0 0.9 0  0.1 0.9 0  0.2 0.9 0  0.3 0.9 0  0.4 0.9 0  0.5 0.9 0  0.6 0.9 0  0.7 0.9 0  0.8 0.9 0  0.9 0.9 0  1 0.9 0  0 1 0  0.1 1 0  0.2 1 0  0.3 1 0  0.4 1 0  0.5 1 0  0.6 1 0  0.7 1 0  0.8 1 0  0.9 1 0  1 1 0  0 0 0.1  0.1 0 0.1  0.2 0 0.1  0.3 0 0.1  0.4 0 0.1  0.5 0 0.1  0.6 0 0.1  0.7 0 0.1  0.8 0 0.1  0.9 0 0.1  1 0 0.1  0 0.1 0.1  0.1 0.1 0.1  0.2 0.1 0.1  0.3 0.1 0.1  0.4 0.1 0.1  0.5 0.1 0.1  0.6 0.1 0.1  0.7 0.1 0.1  0.8 0.1 0.1  0.9 0.1 0.1  1 0.1 0.1  0 0.2 0.1  0.1 0.2 0.1  0.2 0.2 0.1  0.3 0.2 0.1  0.4 0.2 0.1  0.5 0.2 0.1  0.6 0.2 0.1  0.7 0.2 0.1  0.8 0.2 0.1  0.9 0.2 0.1  1 0.2 0.1  0 0.3 0.1  0.1 0.3 0.1  0.2 0.3 0.1  0.3 0.3 0.1  0.4 0.3 0.1  0.5 0.3 0.1  0.6 0.3 0.1  0.7 0.3 0.1  0.8 0.3 0.1  0.9 0.3 0.1  1 0.3 0.1  0 0.4 0.1  0.1 0.4 0.1  0.2 0.4 0.1  0.3 0.4 0.1  0.4 0.4 0.1  0.5 0.4 0.1  0.6 0.4 0.1  0.7 0.4 0.1  0.8 0.4 0.1  0.9 0.4 0.1  1 0.4 0.1  0 0.5 0.1  0.1 0.5 0.1  0.2 0.5 0.1  0.3 0.5 0.1  0.4 0.5 0.1  0.5 0.5 0.1  0.6 0.5 0.1  0.7 0.5 0.1  0.8 0.5 0.1  0.9 0.5 0.1  1 0.5 0.1  0 0.6 0.1  0.1 0.6 0.1  0.2 0.6 0.1  0.3 0.6 0.1  0.4 0.6 0.1  0.5 0.6 0.1  0.6 0.6 0.1  0.7 0.6 0.1  0.8 0.6 0.1  0.9 0.6 0.1  1 0.6 0.1  0 0.7 0.1  0.1 0.7 0.1  0.2 0.7 0.1  0.3 0.7 0.1  0.4 0.7 0.1  0.5 0.7 0.1  0.6 0.7 0.1  0.7 0.7 0.1  0.8 0.7 0.1  0.9 0.7 0.1  1 0.7 0.1  0 0.8 0.1  0.1 0.8 0.1  0.2 0.8 0.1  0.3 0.8 0.1  0.4 0.8 0.1  0.5 0.8 0.1  0.6 0.8 0.1  0.7 0.8 0.1  0.8 0.8 0.1  0.9 0.8 0.1  1 0.8 0.1  0 0.9 0.1  0.1 0.9 0.1  0.2 0.9 0.1  0.3 0.9 0.1  0.4 0.9 0.1  0.5 0.9 0.1  0.6 0.9 0.1  0.7 0.9 0.1  0.8 0.9 0.1  0.9 0.9 0.1  1 0.9 0.1  0 1 0.1  0.1 1 0.1  0.2 1 0.1  0.3 1 0.1  0.4 1 0.1  0.5 1 0.1  0.6 1 0.1  0.7 1 0.1  0.8 1 0.1  0.9 1 0.1  1 1 0.1  0 0 0.2  0.1 0 0.2  0.2 0 0.2  0.3 0 0.2  0.4 0 0.2  0.5 0 0.2  0.6 0 0.2  0.7 0 0.2  0.8 0 0.2  0.9 0 0.2  1 0 0.2  0 0.1 0.2  0.1 0.1 0.2  0.2 0.1 0.2  0.3 0.1 0.2  0.4 0.1 0.2  0.5 0.1 0.2  0.6 0.1 0.2  0.7 0.1 0.2  0.8 0.1 0.2  0.9 0.1 0.2  1 0.1 0.2  0 0.2 0.2  0.1 0.2 0.2  0.2 0.2 0.2  0.3 0.2 0.2  0.4 0.2 0.2  0.5 0.2 0.2  0.6 0.2 0.2  0.7 0.2 0.2  0.8 0.2 0.2  0.9 0.2 0.2  1 0.2 0.2  0 0.3 0.2  0.1 0.3 0.2  0.2 0.3 0.2  0.3 0.3 0.2  0.4 0.3 0.2  0.5 0.3 0.2  0.6 0.3 0.2  0.7 0.3 0.2  0.8 0.3 0.2  0.9 0.3 0.2  1 0.3 0.2  0 0.4 0.2  0.1 0.4 0.2  0.2 0.4 0.2  0.3 0.4 0.2  0.4 0.4 0.2  0.5 0.4 0.2  0.6 0.4 0.2  0.7 0.4 0.2  0.8 0.4 0.2  0.9 0.4 0.2  1 0.4 0.2  0 0.5 0.2  0.1 0.5 0.2  0.2 0.5 0.2  0.3 0.5 0.2  0.4 0.5 0.2  0.5 0.5 0.2  0.6 0.5 0.2  0.7 0.5 0.2  0.8 0.5 0.2  0.9 0.5 0.2  1 0.5 0.2  0 0.6 0.2  0.1 0.6 0.2  0.2 0.6 0.2  0.3 0.6 0.2  0.4 0.6 0.2  0.5 0.6 0.2  0.6 0.6 0.2  0.7 0.6 0.2  0.8 0.6 0.2  0.9 0.6 0.2  1 0.6 0.2  0 0.7 0.2  0.1 0.7 0.2  0.2 0.7 0.2  0.3 0.7 0.2  0.4 0.7 0.2  0.5 0.7 0.2  0.6 0.7 0.2  0.7 0.7 0.2  0.8 0.7 0.2  0.9 0.7 0.2  1 0.7 0.2  0 0.8 0.2  0.1 0.8 0.2  0.2 0.8 0.2  0.3 0.8 0.2  0.4 0.8 0.2  0.5 0.8 0.2  0.6 0.8 0.2  0.7 0.8 0.2  0.8 0.8 0.2  0.9 0.8 0.2  1 0.8 0.2  0 0.9 0.2  0.1 0.9 0.2  0.2 0.9 0.2  0.3 0.9 0.2  0.4 0.9 0.2  0.5 0.9 0.2  0.6 0.9 0.2  0.7 0.9 0.2  0.8 0.9 0.2  0.9 0.9 0.2  1 0.9 0.2  0 1 0.2  0.1 1 0.2  0.2 1 0.2  0.3 1 0.2  0.4 1 0.2  0.5 1 0.2  0.6 1 0.2  0.7 1 0.2  0.8 1 0.2  0.9 1 0.2  1 1 0.2  0 0 0.3  0.1 0 0.3  0.2 0 0.3  0.3 0 0.3  0.4 0 0.3  0.5 0 0.3  0.6 0 0.3  0.7 0 0.3  0.8 0 0.3  0.9 0 0.3  1 0 0.3  0 0.1 0.3  0.1 0.1 0.3  0.2 0.1 0.3  0.3 0.1 0.3  0.4 0.1 0.3  0.5 0.1 0.3  0.6 0.1 0.3  0.7 0.1 0.3  0.8 0.1 0.3  0.9 0.1 0.3  1 0.1 0.3  0 0.2 0.3  0.1 0.2 0.3  0.2 0.2 0.3  0.3 0.2 0.3  0.4 0.2 0.3  0.5 0.2 0.3  0.6 0.2 0.3  0.7 0.2 0.3  0.8 0.2 0.3  0.9 0.2 0.3  1 0.2 0.3  0 0.3 0.3  0.1 0.3 0.3  0.2 0.3 0.3  0.3 0.3 0.3  0.4 0.3 0.3  0.5 0.3 0.3  0.6 0.3 0.3  0.7 0.3 0.3  0.8 0.3 0.3  0.9 0.3 0.3  1 0.3 0.3  0 0.4 0.3  0.1 0.4 0.3  0.2 0.4 0.3  0.3 0.4 0.3  0.4 0.4 0.3  0.5 0.4 0.3  0.6 0.4 0.3  0.7 0.4 0.3  0.8 0.4 0.3  0.9 0.4 0.3  1 0.4 0.3  0 0.5 0.3  0.1 0.5 0.3  0.2 0.5 0.3  0.3 0.5 0.3  0.4 0.5 0.3  0.5 0.5 0.3  0.6 0.5 0.3  0.7 0.5 0.3  0.8 0.5 0.3  0.9 0.5 0.3  1 0.5 0.3  0 0.6 0.3  0.1 0.6 0.3  0.2 0.6 0.3  0.3 0.6 0.3  0.4 0.6 0.3  0.5 0.6 0.3  0.6 0.6 0.3  0.7 0.6 0.3  0.8 0.6 0.3  0.9 0.6 0.3  1 0.6 0.3  0 0.7 0.3  0.1 0.7 0.3  0.2 0.7 0.3  0.3 0.7 0.3  0.4 0.7 0.3  0.5 0.7 0.3  0.6 0.7 0.3  0.7 0.7 0.3  0.8 0.7 0.3  0.9 0.7 0.3  1 0.7 0.3  0 0.8 0.3  0.1 0.8 0.3  0.2 0.8 0.3  0.3 0.8 0.3  0.4 0.8 0.3  0.5 0.8 0.3  0.6 0.8 0.3  0.7 0.8 0.3  0.8 0.8 0.3  0.9 0.8 0.3  1 0.8 0.3  0 0.9 0.3  0.1 0.9 0.3  0.2 0.9 0.3  0.3 0.9 0.3  0.4 0.9 0.3  0.5 0.9 0.3  0.6 0.9 0.3  0.7 0.9 0.3  0.8 0.9 0.3  0.9 0.9 0.3  1 0.9 0.3  0 1 0.3  0.1 1 0.3  0.2 1 0.3  0.3 1 0.3  0.4 1 0.3  0.5 1 0.3  0.6 1 0.3  0.7 1 0.3  0.8 1 0.3  0.9 1 0.3  1 1 0.3  0 0 0.4  0.1 0 0.4  0.2 0 0.4  0.3 0 0.4  0.4 0 0.4  0.5 0 0.4  0.6 0 0.4  0.7 0 0.4  0.8 0 0.4  0.9 0 0.4  1 0 0.4  0 0.1 0.4  0.1 0.1 0.4  0.2 0.1 0.4  0.3 0.1 0.4  0.4 0.1 0.4  0.5 0.1 0.4  0.6 0.1 0.4  0.7 0.1 0.4  0.8 0.1 0.4  0.9 0.1 0.4  1 0.1 0.4  0 0.2 0.4  0.1 0.2 0.4  0.2 0.2 0.4  0.3 0.2 0.4  0.4 0.2 0.4  0.5 0.2 0.4  0.6 0.2 0.4  0.7 0.2 0.4  0.8 0.2 0.4  0.9 0.2 0.4  1 0.2 0.4  0 0.3 0.4  0.1 0.3 0.4  0.2 0.3 0.4  0.3 0.3 0.4  0.4 0.3 0.4  0.5 0.3 0.4  0.6 0.3 0.4  0.7 0.3 0.4  0.8 0.3 0.4  0.9 0.3 0.4  1 0.3 0.4  0 0.4 0.4  0.1 0.4 0.4  0.2 0.4 0.4  0.3 0.4 0.4  0.4 0.4 0.4  0.5 0.4 0.4  0.6 0.4 0.4  0.7 0.4 0.4  0.8 0.4 0.4  0.9 0.4 0.4  1 0.4 0.4  0 0.5 0.4  0.1 0.5 0.4  0.2 0.5 0.4  0.3 0.5 0.4  0.4 0.5 0.4  0.5 0.5 0.4  0.6 0.5 0.4  0.7 0.5 0.4  0.8 0.5 0.4  0.9 0.5 0.4  1 0.5 0.4  0 0.6 0.4  0.1 0.6 0.4  0.2 0.6 0.4  0.3 0.6 0.4  0.4 0.6 0.4  0.5 0.6 0.4  0.6 0.6 0.4  0.7 0.6 0.4  0.8 0.6 0.4  0.9 0.6 0.4  1 0.6 0.4  0 0.7 0.4  0.1 0.7 0.4  0.2 0.7 0.4  0.3 0.7 0.4  0.4 0.7 0.4  0.5 0.7 0.4  0.6 0.7 0.4  0.7 0.7 0.4  0.8 0.7 0.4  0.9 0.7 0.4  1 0.7 0.4  0 0.8 0.4  0.1 0.8 0.4  0.2 0.8 0.4  0.3 0.8 0.4  0.4 0.8 0.4  0.5 0.8 0.4  0.6 0.8 0.4  0.7 0.8 0.4  0.8 0.8 0.4  0.9 0.8 0.4  1 0.8 0.4  0 0.9 0.4  0.1 0.9 0.4  0.2 0.9 0.4  0.3 0.9 0.4  0.4 0.9 0.4  0.5 0.9 0.4  0.6 0.9 0.4  0.7 0.9 0.4  0.8 0.9 0.4  0.9 0.9 0.4  1 0.9 0.4  0 1 0.4  0.1 1 0.4  0.2 1 0.4  0.3 1 0.4  0.4 1 0.4  0.5 1 0.4  0.6 1 0.4  0.7 1 0.4  0.8 1 0.4  0.9 1 0.4  1 1 0.4  0 0 0.5  0.1 0 0.5  0.2 0 0.5  0.3 0 0.5  0.4 0 0.5  0.5 0 0.5  0.6 0 0.5  0.7 0 0.5  0.8 0 0.5  0.9 0 0.5  1 0 0.5  0 0.1 0.5  0.1 0.1 0.5  0.2 0.1 0.5  0.3 0.1 0.5  0.4 0.1 0.5  0.5 0.1 0.5  0.6 0.1 0.5  0.7 0.1 0.5  0.8 0.1 0.5  0.9 0.1 0.5  1 0.1 0.5  0 0.2 0.5  0.1 0.2 0.5  0.2 0.2 0.5  0.3 0.2 0.5  0.4 0.2 0.5  0.5 0.2 0.5  0.6 0.2 0.5  0.7 0.2 0.5  0.8 0.2 0.5  0.9 0.2 0.5  1 0.2 0.5  0 0.3 0.5  0.1 0.3 0.5  0.2 0.3 0.5  0.3 0.3 0.5  0.4 0.3 0.5  0.5 0.3 0.5  0.6 0.3 0.5  0.7 0.3 0.5  0.8 0.3 0.5  0.9 0.3 0.5  1 0.3 0.5  0 0.4 0.5  0.1 0.4 0.5  0.2 0.4 0.5  0.3 0.4 0.5  0.4 0.4 0.5  0.5 0.4 0.5  0.6 0.4 0.5  0.7 0.4 0.5  0.8 0.4 0.5  0.9 0.4 0.5  1 0.4 0.5  0 0.5 0.5  0.1 0.5 0.5  0.2 0.5 0.5  0.3 0.5 0.5  0.4 0.5 0.5  0.5 0.5 0.5  0.6 0.5 0.5  0.7 0.5 0.5  0.8 0.5 0.5  0.9 0.5 0.5  1 0.5 0.5  0 0.6 0.5  0.1 0.6 0.5  0.2 0.6 0.5  0.3 0.6 0.5  0.4 0.6 0.5  0.5 0.6 0.5  0.6 0.6 0.5  0.7 0.6 0.5  0.8 0.6 0.5  0.9 0.6 0.5  1 0.6 0.5  0 0.7 0.5  0.1 0.7 0.5  0.2 0.7 0.5  0.3 0.7 0.5  0.4 0.7 0.5  0.5 0.7 0.5  0.6 0.7 0.5  0.7 0.7 0.5  0.8 0.7 0.5  0.9 0.7 0.5  1 0.7 0.5  0 0.8 0.5  0.1 0.8 0.5  0.2 0.8 0.5  0.3 0.8 0.5  0.4 0.8 0.5  0.5 0.8 0.5  0.6 0.8 0.5  0.7 0.8 0.5  0.8 0.8 0.5  0.9 0.8 0.5  1 0.8 0.5  0 0.9 0.5  0.1 0.9 0.5  0.2 0.9 0.5  0.3 0.9 0.5  0.4 0.9 0.5  0.5 0.9 0.5  0.6 0.9 0.5  0.7 0.9 0.5  0.8 0.9 0.5  0.9 0.9 0.5  1 0.9 0.5  0 1 0.5  0.1 1 0.5  0.2 1 0.5  0.3 1 0.5  0.4 1 0.5  0.5 1 0.5  0.6 1 0.5  0.7 1 0.5  0.8 1 0.5  0.9 1 0.5  1 1 0.5  0 0 0.6  0.1 0 0.6  0.2 0 0.6  0.3 0 0.6  0.4 0 0.6  0.5 0 0.6  0.6 0 0.6  0.7 0 0.6  0.8 0 0.6  0.9 0 0.6  1 0 0.6  0 0.1 0.6  0.1 0.1 0.6  0.2 0.1 0.6  0.3 0.1 0.6  0.4 0.1 0.6  0.5 0.1 0.6  0.6 0.1 0.6  0.7 0.1 0.6  0.8 0.1 0.6  0.9 0.1 0.6  1 0.1 0.6  0 0.2 0.6  0.1 0.2 0.6  0.2 0.2 0.6  0.3 0.2 0.6  0.4 0.2 0.6  0.5 0.2 0.6  0.6 0.2 0.6  0.7 0.2 0.6  0.8 0.2 0.6  0.9 0.2 0.6  1 0.2 0.6  0 0.3 0.6  0.1 0.3 0.6  0.2 0.3 0.6  0.3 0.3 0.6  0.4 0.3 0.6  0.5 0.3 0.6  0.6 0.3 0.6  0.7 0.3 0.6  0.8 0.3 0.6  0.9 0.3 0.6  1 0.3 0.6  0 0.4 0.6  0.1 0.4 0.6  0.2 0.4 0.6  0.3 0.4 0.6  0.4 0.4 0.6  0.5 0.4 0.6  0.6 0.4 0.6  0.7 0.4 0.6  0.8 0.4 0.6  0.9 0.4 0.6  1 0.4 0.6  0 0.5 0.6  0.1 0.5 0.6  0.2 0.5 0.6  0.3 0.5 0.6  0.4 0.5 0.6  0.5 0.5 0.6  0.6 0.5 0.6  0.7 0.5 0.6  0.8 0.5 0.6  0.9 0.5 0.6  1 0.5 0.6  0 0.6 0.6  0.1 0.6 0.6  0.2 0.6 0.6  0.3 0.6 0.6  0.4 0.6 0.6  0.5 0.6 0.6  0.6 0.6 0.6  0.7 0.6 0.6  0.8 0.6 0.6  0.9 0.6 0.6  1 0.6 0.6  0 0.7 0.6  0.1 0.7 0.6  0.2 0.7 0.6  0.3 0.7 0.6  0.4 0.7 0.6  0.5 0.7 0.6  0.6 0.7 0.6  0.7 0.7 0.6  0.8 0.7 0.6  0.9 0.7 0.6  1 0.7 0.6  0 0.8 0.6  0.1 0.8 0.6
[...]
<PointData  Scalars="f_53"> 
<DataArray  type="Float64"  Name="f_53"  format="ascii">2.2845307297856726e-01  1.5167350881820021e-01  1.0146002837973897e-01  7.1505350140421059e-02  5.0169258503999850e-02  3.5334713595141662e-02  2.4861105776020787e-02  1.7483229723759836e-02  1.3505733363715947e-02  8.3084782329151292e-03  4.1789936540234680e-03  -2.0840594176347468e-01  -8.9484404554934366e-02  -4.5213598667978257e-02  -1.9984972420071013e-02  -8.5736130352005724e-03  -3.3423549090692670e-03  -1.0790411423184487e-03  1.5625398489722584e-04  1.7634895838540875e-03  -6.4164258124612317e-04  -1.3200716789020293e-03  -3.4918510824434307e-01  -1.4570395485948015e-01  -9.1983249038379913e-02  -5.6037107117352727e-02  -3.4431215435412013e-02  -2.1732473067864976e-02  -1.4094519961106413e-02  -8.9496069213389987e-03  -4.6210937394228361e-03  -6.5485845928474054e-03  -2.6657580538492153e-03  -3.8937585347506271e-01  -1.6313305403507108e-01  -1.0914905156172945e-01  -7.0122255593738220e-02  -4.5225488930251016e-02  -3.0122251656872080e-02  -2.0615529944379044e-02  -1.3872089935247108e-02  -8.4394657728025322e-03  -1.0458213212075292e-02  -2.9248612908659693e-03  -4.0369474359532109e-01  -1.7412579943374051e-01  -1.2430379288878632e-01  -8.3237029724999592e-02  -5.5624435530511489e-02  -3.8191001483575002e-02  -2.6752592548693555e-02  -1.8399451108979240e-02  -1.1789779635552267e-02  -1.3218030915056045e-02  -3.2325701310707586e-03  -4.3067282206880947e-01  -1.8892763116164824e-01  -1.3652569783665977e-01  -9.2267377444221671e-02  -6.2156956414561475e-02  -4.2811817493721441e-02  -2.9902668318066483e-02  -2.0457872506934750e-02  -1.3316070467777351e-02  -1.3884615019380578e-02  -3.1177552524488637e-03  -4.4642464354563266e-01  -1.7908876795035258e-01  -1.2078335196002583e-01  -7.9115491772841356e-02  -5.1907974218138898e-02  -3.4967259178635704e-02  -2.3881317746071717e-02  -1.5972188414109963e-02  -1.0350737334115219e-02  -1.0984356965212456e-02  -1.8950424427238183e-03  -3.8575867342297526e-01  -1.4152738011761351e-01  -8.4857223718338176e-02  -5.3624674670808482e-02  -3.4481610106749445e-02  -2.3018990143074555e-02  -1.5604463917300578e-02  -1.0480963353986657e-02  -7.0162954636481725e-03  -7.3262820254175387e-03  -7.3211321504267350e-04  -6.4652679948337649e-02  1.6785003591758111e-03  -3.5192339821654801e-03  -4.3690839988641261e-03  -3.0794932749921449e-03  -2.2384846552722208e-03  -1.5708138697435581e-03  -1.0767077948122927e-03  -7.4689365830794341e-04  -1.0602521823516776e-03  1.2956843777700055e-03  5.4151727855453989e-03  3.3315733246905696e-03  2.5197383021388165e-04  2.8009596341229727e-04  6.3998129508375731e-04  5.3547959329653891e-04  4.1775471819275131e-04  3.1305671390327637e-04  1.9205739180928934e-04  2.3269971103156742e-04  1.4172213315302970e-04  1.1346222227960612e-02  6.0214558623797277e-03  2.4756413392200641e-03  7.9262544953440084e-04  4.6824966795729278e-04  1.7183197668134049e-04  7.6826704451050593e-05  3.7080334484783699e-05  -2.5450297680142328e-05  -3.8135424225872862e-05  -1.6542950843692202e-05  -2.0841541638736222e-01  -8.9497305918186290e-02  -4.5235045574310441e-02  -2.0015866209667565e-02  -8.6079063519876771e-03  -3.3784607488474192e-03  -1.1203232595505509e-03  1.1659354206215517e-04  1.7229275644286049e-03  -6.7128190545717270e-04  -1.3310390794379313e-03  -7.6667125730021379e-01  -4.2251678208861393e-01  -2.8344718216509301e-01  -1.9663234745632813e-01  -1.3724965425988014e-01  -9.6054925745364256e-02  -6.7642279850286161e-02  -4.7684039271930476e-02  -3.3702838863534090e-02  -2.7698055271580913e-02  -1.2742303104122119e-02  5.2784635399301958e-03  -4.1372662750200672e-03  -6.1373624110081522e-02  -8.1012199487594555e-02  -7.4737438170381504e-02  -6.1073723798397192e-02  -4.7391819415560144e-02  -3.5915493867323740e-02  -2.7597633553892564e-02  -2.6515594882555341e-02  -4.6913906702446212e-03  -7.4118154758942817e-02  8.4080457811641998e-04  -3.1776907003740626e-02  -5.7538835030101272e-02  -5.8797242766867763e-02  -5.0893765681422669e-02  -4.0981553370028179e-02  -3.1845986565863273e-02  -2.5444722052749766e-02  -2.6320272128129693e-02  2.1975633855204888e-03  -1.2806104007790522e-01  -7.2562534003141992e-03  -3.2700609133040112e-02  -5.7553517980942132e-02  -5.7597964321598936e-02  -4.9068564110080176e-02  -3.8885989761176604e-02  -2.9720661196221541e-02  -2.3721364884004486e-02  -2.5532438715986400e-02  6.8966581734781571e-03  -1.1865371075276451e-01  1.6979960939348109e-02  -6.8159135540447665e-03  -3.3738459020385664e-02  -3.7402167457323506e-02  -3.2888092784236996e-02  -2.6266122376436211e-02  -2.0076465544435634e-02  -1.6726216569670879e-02  -2.0074786319606078e-02  1.0661723638285334e-02  -3.9748262988820303e-02  8.0655422755068401e-02  5.3737102315839114e-02  1.7190226191354858e-02  2.3693779010059853e-03  -3.2016827660263005e-03  -4.6267112195539145e-03  -4.6404506128726467e-03  -5.9142242240427141e-03  -1.1072981457258246e-02  1.3352650572087397e-02  1.2360458034987593e-01  1.2564795874062767e-01  7.6991118641429351e-02  3.3545979231847253e-02  1.4249935213441905e-02  5.1329796584719993e-03  1.0562058329406964e-03  -8.8764981755485174e-04  -3.0152071070097194e-03  -6.7264383641422974e-03  1.1421045295150348e-02  5.6472323820802328e-01  2.6964074255136428e-01  1.4050923763688195e-01  7.5529406926528750e-02  4.5002277381813040e-02  2.7986395585036686e-02  1.7999312024571442e-02  1.1747334446396593e-02  7.4259477783289530e-03  4.3089469263243229e-03  1.0019819501125925e-02  -1.5466570582315211e-02  -6.7045488880494761e-02  -3.9308855150429277e-02  -2.3760782113718810e-02  -1.4302758575079217e-02  -9.2483087753773893e-03  -6.1377249554479532e-03  -4.1607596447211844e-03  -2.8385242568840178e-03  -1.5734041147836895e-03  -1.9129933669910523e-03  5.7112303539440263e-03  -6.7518412092958044e-03  8.5231069245807894e-03  6.3137071703599128e-03  3.9311979193273486e-03  2.3687684701495714e-03  1.5657530678646931e-03  1.0600300056210835e-03  6.9319166315170717e-04  6.4029389663081972e-04  5.0108784870287067e-04  -3.4917279249657807e-01  -1.4569467623692120e-01  -9.1981440773563447e-02  -5.6054452072715595e-02  -3.4462942789788051e-02  -2.1800215164505674e-02  -1.4212987621455895e-02  -9.1030306974838656e-03  -4.8135442110414971e-03  -6.6826551739018096e-03  -2.7145786908341174e-03  5.2795244113271562e-03  -4.1177445167002325e-03  -6.1313106349379920e-02  -8.0918079142834554e-02  -7.4606183340467661e-02  -6.0928766273095882e-02  -4.7234008817490319e-02  -3.5741289006312266e-02  -2.7437870484337573e-02  -2.6356002746436756e-02  -4.6129666397980856e-03  8.0000000000000000e+00  4.9171082643189434e+00  3.2346261845440365e+00  2.1734075156461499e+00  1.4783477223925863e+00  1.0164422244045117e+00  7.0581814107415186e-01  4.9432881169872245e-01  3.4825417532398639e-01  2.4909063105869036e-01  2.0807143453711355e-01  8.0000000000000000e+00  5.7224507565600735e+00  4.1153214911894214e+00  2.9318426126756800e+00  2.0766115780485199e+00  1.4691926874152084e+00  1.0414556806864870e+00  7.4097443156250020e-01  5.2977908258097817e-01  3.8758612376796314e-01  3.3999428532929971e-01  8.0000000000000000e+00  6.0970141662012978e+00  4.6240805395750222e+00  3.4291962269246756e+00  2.5022318024970951e+00  1.8096036584896944e+00  1.3038988026558784e+00  9.3934902557732824e-01  6.7831178667600989e-01  4.9959612604893994e-01  4.3904536275718004e-01  8.0000000000000000e+00  6.2003393585543956e+00  4.7739179447116564e+00  3.5836887415705760e+00  2.6397287936833114e+00  1.9227590186371675e+00  1.3930109879103603e+00  1.0077089961788632e+00  7.3002217092947197e-01  5.3972247900728521e-01  4.7407850034240384e-01  8.0000000000000000e+00  6.0609695325271282e+00  4.5734177277289669e+00  3.3793289486916507e+00  2.4595194453771079e+00  1.7753065262657930e+00  1.2773163705061885e+00  9.1903159851350846e-01  6.6337246112380910e-01  4.9167201915712300e-01  4.3231624057823964e-01  8.0000000000000000e+00  5.5856467495951003e+00  3.9670777604726322e+00  2.8092925923808374e+00  1.9841464250684018e+00  1.4015587320723095e+00  9.9250795187747165e-01  7.0568316670621145e-01  5.0554287075163784e-01  3.7530722789312126e-01  3.3039709547818724e-01  8.0000000000000000e+00  4.6383437571360915e+00  2.9991743157407442e+00  2.0090352294624454e+00  1.3692607651841282e+00  9.4447575485770474e-01  6.5787391605105161e-01  4.6217883054574926e-01  3.2806805588169180e-01  2.4123109579052168e-01  2.0700130858736307e-01  8.3000274157449161e-01  1.9968256040979399e-01  3.4917965773335113e-02  3.5827616463910742e-03  -3.5855379116015947e-03  -4.8988284870671679e-03  -4.5595488797783267e-03  -3.7673945579089997e-03  -2.9140549597846893e-03  -2.3159621233336787e-03  -1.2243375276318965e-02  9.6067740535325644e-02  -1.2681512398234074e-01  -6.0248363058414300e-02  -1.8512594059942693e-02  -9.0557064141301661e-03  -5.2822180711570889e-03  -3.2664218660760367e-03  -2.0899972554148517e-03  -1.4307379325289979e-03  -5.1267740059690939e-04  -1.3717390563511326e-03  -3.8928804962382613e-01  -1.6303334366879688e-01  -1.0902503845951568e-01  -7.0006167251365742e-02  -4.5134793344689783e-02  -3.0117480637632570e-02  -2.0737728859345619e-02  -1.4131001217988604e-02  -8.8412245922320463e-03  -1.0686772935546774e-02  -2.9983244926392308e-03  -7.4147276635835868e-02  8.1497880887456710e-04  -3.1739222610012316e-02  -5.7416307310263426e-02  -5.8563294847569704e-02  -5.0555479405736417e-02  -4.0498642460459408e-02  -3.1181331936346177e-02  -2.4696671917151435e-02  -2.5503516070126596e-02  2.5597762791064733e-03  8.0000000000000000e+00  5.7224724139088554e+00  4.1149300677950036e+00  2.9310946341409947e+00  2.0755578773093530e+00  1.4678980173469480e+00  1.0400112033774336e+00  7.3948624885543024e-01  5.2833588806164455e-01  3.8630084589801933e-01  3.3891861483287128e-01  8.0000000000000000e+00  6.4411962006306789e+00  4.9549461065801026e+00  3.6932012502396057e+00  2.7002681922324712e+00  1.9535035985154405e+00  1.4064988394891766e+00  1.0117905917688461e+00  7.2959508409307650e-01  5.3662288387844526e-01  4.6406808771240593e-01  8.0000000000000000e+00  6.8806768820023532e+00  5.5860691678465493e+00  4.3397404529336221e+00  3.2729291123238919e+00  2.4223204131600817e+00  1.7732772714873999e+00  1.2912954507595364e+00  9.3918002463912331e-01  6.9145526484130093e-01  5.9412215859825346e-01  8.0000000000000000e+00  7.0074023244200454e+00  5.7815305786552340e+00  4.5528998024471532e+00  3.4703277706960929e+00  2.5890408973321986e+00  1.9066553069084844e+00  1.3945382265445265e+00  1.0175007446928688e+00  7.5131386377410925e-01  6.4546126177916407e-01  8.0000000000000000e+00  6.8451805742146492e+00  5.5283980911211037e+00  4.2790889804407541e+00  3.2186632126987456e+00  2.3774533390501267e+00  1.7378953936766632e+00  1.2641253366061063e+00  9.1931204236928843e-01  6.8168565842057072e-01  5.8857090339485718e-01  8.0000000000000000e+00  6.3423902241609893e+00  4.8312810855213844e+00  3.5787188415810478e+00  2.6059531289714601e+00  1.8798010204564781e+00  1.3506547679409340e+00  9.7039221426483357e-01  7.0087702211615965e-01  5.2264187876350088e-01  4.5474103306445135e-01  8.0000000000000000e+00  5.6067888135088779e+00  3.9710826292730603e+00  2.8027405700726988e+00  1.9736264927107570e+00  1.3908339274059525e+00  9.8321534884344752e-01  6.9846788309030972e-01  5.0098187009258222e-01  3.7279883450439200e-01  3.2010427814575371e-01  6.6952288140172100e-01  2.4932279095885339e-02  -1.3092038035413775e-01  -1.1451534186237865e-01  -9.0314231627847560e-02  -6.8032364428625924e-02  -5.0176160792319631e-02  -3.6591859016871113e-02  -2.6667108567804888e-02  -2.1189657969628992e-02  -4.1741701685576969e-02  -1.0515122544333744e-01  -4.1979569678223400e-01  -2.4308383831716249e-01  -9.4267582728966653e-02  -5.0969303574468716e-02  -3.1038035336300337e-02  -1.9704238804689658e-02  -1.2882346533581801e-02  -8.6844786388464799e-03  -5.0364314833988878e-03  -5.5352206280025263e-03  -4.0344982534363782e-01  -1.7384939791739329e-01  -1.2393247182397422e-01  -8.2828627196374668e-02  -5.5219174203254832e-02  -3.7879259499937312e-02  -2.6620269532093989e-02  -1.8528199868398976e-02  -1.2116704476498145e-02  -1.3226944660363341e-02  -3.2643386795615484e-03  -1.2813128286448400e-01  -7.4009512228647833e-03  -3.2817738083235778e-02  -5.7560029287863752e-02  -5.7425386287217807e-02  -4.8656672143811509e-02  -3.8098976711626840e-02  -2.8463439117075866e-02  -2.2076864794001675e-02  -2.3602243090725013e-02  7.5803021172433311e-03  8.0000000000000000e+00  6.0970280897397995e+00  4.6231162263543730e+00  3.4271407191718399e+00  2.4990171512805959e+00  1.8052298809619642e+00  1.2984664059513185e+00  9.3304778844411074e-01  6.7139400737057697e-01  4.9258583436054715e-01  4.3250439091481252e-01  8.0000000000000000e+00  6.8807156423291307e+00  5.5855027342106940e+00  4.3384316026356649e+00  3.2707097216786054e+00  2.4190652852383923e+00  1.7689089557502751e+00  1.2857962725844083e+00  9.3259494906558416e-01  6.8416718791674969e-01  5.8698567937456747e-01  8.0000000000000000e+00  7.3643300641048786e+00  6.3421128494619232e+00  5.1623827572780421e+00  4.0330179452005357e+00  3.0621758590862571e+00  2.2820953346642203e+00  1.6816037564876467e+00  1.2308944185271102e+00  9.0212134351862228e-01  7.6734138322843504e-01  8.0000000000000000e+00  7.4965682847738764e+00  6.5745177968587090e+00  5.4397488245416561e+00  4.3065252774617671e+00  3.3031380925399478e+00  2.4801840912584914e+00  1.8375436319051113e+00  1.3502787761964357e+00  9.9299377971050140e-01  8.4525959843806775e-01  8.0000000000000000e+00  7.3305461317425857e+00  6.2852263579075052e+00  5.1038364106544813e+00  3.9828224299452426e+00  3.0219702032558624e+00  2.2510182035492732e+00  1.6581279134996556e+00  1.2143894137997053e+00  8.9788552288672263e-01  7.6967432672035041e-01  8.0000000000000000e+00  6.8068843667293883e+00  5.4928409371417493e+00  4.2516273109230500e+00  3.1986903081696529e+00  2.3618915887133785e+00  1.7249565369204536e+00  1.2531418868725381e+00  9.1104691483657307e-01  6.7886214561370695e-01  5.8813068612085917e-01  8.0000000000000000e+00  6.0477958362718649e+00  4.5494270134208525e+00  3.3498322084722685e+00  2.4294861646921384e+00  1.7473795175363040e+00  1.2530856628270990e+00  8.9934650142297956e-01  6.4967039088695977e-01  4.8475043593792411e-01  4.1503287962237523e-01  6.1815515592556880e-01  -2.4375828224093569e-02  -1.7062101957268092e-01  -1.5221125104407102e-01  -1.2529763755120404e-01  -9.6293697202548184e-02  -7.1322540102772600e-02  -5.1828176813616518e-02  -3.7581084054406577e-02  -2.9970230295451313e-02  -5.6307009930479691e-02  -1.1289410810479679e-01  -4.6155164084935335e-01  -2.8201608197365574e-01  -1.1071951153191134e-01  -6.4231072563651598e-02  -4.0030555618697505e-02  -2.5296042886459303e-02  -1.6540696466303122e-02  -1.1168920442226617e-02  -6.2473586945603369e-03  -6.0935186732572104e-03  -4.3018925546794112e-01  -1.8842340487073242e-01  -1.3585145964427550e-01  -9.1496499486456051e-02  -6.1327375050153475e-02  -4.1991866798397205e-02  -2.9157479691406515e-02  -1.9766508035225932e-02  -1.2360586950854962e-02  -1.2541612648600571e-02  -2.6953328254291494e-03  -1.1881653714452374e-01  1.6615306447774137e-02  -7.2349949504240067e-03  -3.4062601553645010e-02  -3.7537332823606225e-02  -3.2714126593871129e-02  -2.5564131081815895e-02  -1.8629878519791088e-02  -1.4547391879011329e-02  -1.7466361485382022e-02  1.1273317586375847e-02  8.0000000000000000e+00  6.2002377291127164e+00  4.7721613410661945e+00  3.5799400343998871e+00  2.6337048239995178e+00  1.9142076572752764e+00  1.3817655643472591e+00  9.9371209994774057e-01  7.1349348997089079e-01  5.2165685010898732e-01  4.5654492522774742e-01  8.0000000000000000e+00  7.0074492361204426e+00  5.7804249332056417e+00  4.5501457372972451e+00  3.4653999099639869e+00  2.5814443609354361e+00  1.8959588947321389e+00  1.3804124306971923e+00  9.9977324694552439e-01  7.3064284030644966e-01  6.2441436924599358e-01  8.0000000000000000e+00  7.4965204093252877e+00  6.5740013484400333e+00  5.4383282651841256e+00  4.3036874101783926e+00  3.2983291056801121e+00  2.4728600039562108e+00  1.8272151188116912e+00  1.3364916836951135e+00  9.7598303893492400e-01  8.2730413484762066e-01  8.0000000000000000e+00  7.6215976096562912e+00  6.8098262869741806e+00  5.7344422967862849e+00  4.6071695389357155e+00  3.5725649602383700e+00  2.7017144875233279e+00  2.0087779013343607e+00  1.4759713123423077e+00  1.0820385059398001e+00  9.1805228891285362e-01  8.0000000000000000e+00  7.4554328002827930e+00  6.5092544988502281e+00  5.3775926657663655e+00  4.2594044144383369e+00  3.2675089414514464e+00  2.4511793356106888e+00  1.8118998851504824e+00  1.3271738595184714e+00  9.7826704754580385e-01  8.3556250035952306e-01  8.0000000000000000e+00  6.9354626906588637e+00  5.6938355723257876e+00  4.4757679910622015e+00  3.4115880984057601e+00  2.5417939259262199e+00  1.8663648228306584e+00  1.3590903494146815e+00  9.8766926624243867e-01  7.3341505199245294e-01  6.3269956793919957e-01  8.0000000000000000e+00  6.1644537161049566e+00  4.7100451302479041e+00  3.5098441398008857e+00  2.5670469555245425e+00  1.8554785008604207e+00  1.3339879847825118e+00  9.5812759160383076e-01  6.9151185854117270e-01  5.1453454208546989e-01  4.3831808173184994e-01  6.1155433666545989e-01  -4.2287145390521502e-02  -2.2411139535332225e-01  -2.1922024346270377e-01  -1.8681076354227391e-01  -1.4597621554574372e-01  -1.0907338892758303e-01  -7.9605649726294775e-02  -5.7751238982595487e-02  -4.5137638522107414e-02  -7.4755516932894506e-02  -9.7103824691018206e-02  -4.4276467057564550e-01  -2.7758591953736633e-01  -1.1467796671306385e-01  -6.8358460306308558e-02  -4.1717279685874117e-02  -2.5974003846494290e-02  -1.7119094146321696e-02  -1.1767037094483483e-02  -6.5819003547158876e-03  -5.5905104007360797e-03  -4.4579612942083824e-01  -1.7851578594862394e-01  -1.2005335799936781e-01  -7.8299776262926113e-02  -5.1023085168875354e-02  -3.4032271510427814e-02  -2.2869813847313153e-02  -1.4669674008107193e-02  -8.2215657126978488e-03  -8.3663208286753315e-03  -9.8700153119533310e-04  -4.0090011652319082e-02  8.0002808710369397e-02  5.2944074524063467e-02  1.6449055807353407e-02  1.7657424984028097e-03  -3.5607828242315218e-03  -4.5794570124911716e-03  -4.0735049728163730e-03  -5.2038815988408108e-03  -1.0930342507275363e-02  1.2129986090729310e-02  8.0000000000000000e+00  6.0608370801101881e+00  4.5709257870801903e+00  3.3740329239306415e+00  2.4510223370700910e+00  1.7631085194532583e+00  1.2608499470091317e+00  8.9765643975740916e-01  6.3677576816176273e-01  4.6163606435991866e-01  4.0213750127088171e-01  8.0000000000000000e+00  6.8453545332357297e+00  5.5267971562790281e+00  4.2749271129297046e+00  3.2111694872419712e+00  2.3657977741756855e+00  1.7212361910297018e+00  1.2417171296120850e+00  8.9082512930418367e-01  6.4809320962088424e-01  5.5357060402365499e-01  8.0000000000000000e+00  7.3305521027639333e+00  6.2842345068998489e+00  5.1009722220464093e+00  3.9771071968653500e+00  3.0122402006941504e+00  2.2359801383052851e+00  1.6365024641487080e+00  1.1851370290812615e+00  8.6114885441549216e-01  7.2983817489034974e-01  8.0000000000000000e+00  7.4554344854146386e+00  6.5088013198874233e+00  5.3761876933050345e+00  4.2564384106654902e+00  3.2621200320303445e+00  2.4422647651908562e+00  1.7982312515467240e+00  1.3076804102723338e+00  9.5281227899306875e-01  8.0694695405496941e-01  8.0000000000000000e+00  7.2898740560770614e+00  6.2235970214875840e+00  5.0507465951422779e+00  3.9520348480713436e+00  3.0000736807275232e+00  2.2290093989118116e+00  1.6318290049329969e+00  1.1830591208345058e+00  8.6554269173346088e-01  7.3601189988630977e-01  8.0000000000000000e+00  6.7897551598668615e+00  5.4616902033122390e+00  4.2309343265753601e+00  3.2013956047151151e+00  2.3639981550024158e+00  1.7197425308972789e+00  1.2401662249421219e+00  8.9178549148391795e-01  6.5543729205391554e-01  5.6017211538193290e-01  8.0000000000000000e+00  6.050105151