<?xml version="1.0"?>
<VTKFile type="UnstructuredGrid"  version="0.1"  >
<UnstructuredGrid>
<Piece  NumberOfPoints="539" NumberOfCells="2160">
<Points>
<DataArray  type="Float64"  NumberOfComponents="3"  format="ascii">0 0.2 0.2  0.1 0.2 0.2  0.1 0.3 0.2  0.1 0.3 0.3  0.1 0.2 0.3  0 0.2 0.3  0 0.3 0.2  0 0.3 0.3  0.2 0.2 0.2  0.2 0.3 0.2  0.2 0.3 0.3  0.2 0.2 0.3  0.3 0.2 0.2  0.3 0.3 0.2  0.3 0.3 0.3  0.3 0.2 0.3  0.4 0.2 0.2  0.4 0.3 0.2  0.4 0.3 0.3  0.4 0.2 0.3  0.5 0.2 0.2  0.5 0.3 0.2  0.5 0.3 0.3  0.5 0.2 0.3  0.6 0.2 0.2  0.6 0.3 0.2  0.6 0.3 0.3  0.6 0.2 0.3  0.7 0.2 0.2  0.7 0.3 0.2  0.7 0.3 0.3  0.7 0.2 0.3  0.8 0.2 0.2  0.8 0.3 0.2  0.8 0.3 0.3  0.8 0.2 0.3  0.9 0.2 0.2  0.9 0.3 0.2  0.9 0.3 0.3  0.9 0.2 0.3  1 0.2 0.2  1 0.3 0.2  1 0.3 0.3  1 0.2 0.3  0.1 0.4 0.2  0.1 0.4 0.3  0 0.4 0.2  0 0.4 0.3  0.2 0.4 0.2  0.2 0.4 0.3  0.3 0.4 0.2  0.3 0.4 0.3  0.4 0.4 0.2  0.4 0.4 0.3  0.5 0.4 0.2  0.5 0.4 0.3  0.6 0.4 0.2  0.6 0.4 0.3  0.7 0.4 0.2  0.7 0.4 0.3  0.8 0.4 0.2  0.8 0.4 0.3  0.9 0.4 0.2  0.9 0.4 0.3  1 0.4 0.2  1 0.4 0.3  0.1 0.5 0.2  0.1 0.5 0.3  0 0.5 0.2  0 0.5 0.3  0.2 0.5 0.2  0.2 0.5 0.3  0.3 0.5 0.2  0.3 0.5 0.3  0.4 0.5 0.2  0.4 0.5 0.3  0.5 0.5 0.2  0.5 0.5 0.3  0.6 0.5 0.2  0.6 0.5 0.3  0.7 0.5 0.2  0.7 0.5 0.3  0.8 0.5 0.2  0.8 0.5 0.3  0.9 0.5 0.2  0.9 0.5 0.3  1 0.5 0.2  1 0.5 0.3  0.1 0.6 0.2  0.1 0.6 0.3  0 0.6 0.2  0 0.6 0.3  0.2 0.6 0.2  0.2 0.6 0.3  0.3 0.6 0.2  0.3 0.6 0.3  0.4 0.6 0.2  0.4 0.6 0.3  0.5 0.6 0.2  0.5 0.6 0.3  0.6 0.6 0.2  0.6 0.6 0.3  0.7 0.6 0.2  0.7 0.6 0.3  0.8 0.6 0.2  0.8 0.6 0.3  0.9 0.6 0.2  0.9 0.6 0.3  1 0.6 0.2  1 0.6 0.3  0.1 0.7 0.2  0.1 0.7 0.3  0 0.7 0.2  0 0.7 0.3  0.2 0.7 0.2  0.2 0.7 0.3  0.3 0.7 0.2  0.3 0.7 0.3  0.4 0.7 0.2  0.4 0.7 0.3  0.5 0.7 0.2  0.5 0.7 0.3  0.6 0.7 0.2  0.6 0.7 0.3  0.7 0.7 0.2  0.7 0.7 0.3  0.8 0.7 0.2  0.8 0.7 0.3  0.9 0.7 0.2  0.9 0.7 0.3  1 0.7 0.2  1 0.7 0.3  0.1 0.8 0.2  0.1 0.8 0.3  0 0.8 0.2  0 0.8 0.3  0.2 0.8 0.2  0.2 0.8 0.3  0.3 0.8 0.2  0.3 0.8 0.3  0.4 0.8 0.2  0.4 0.8 0.3  0.5 0.8 0.2  0.5 0.8 0.3  0.6 0.8 0.2  0.6 0.8 0.3  0.7 0.8 0.2  0.7 0.8 0.3  0.8 0.8 0.2  0.8 0.8 0.3  0.9 0.8 0.2  0.9 0.8 0.3  1 0.8 0.2  1 0.8 0.3  0.1 0.3 0.4  0.1 0.2 0.4  0 0.2 0.4  0 0.3 0.4  0.2 0.3 0.4  0.2 0.2 0.4  0.3 0.3 0.4  0.3 0.2 0.4  0.4 0.3 0.4  0.4 0.2 0.4  0.5 0.3 0.4  0.5 0.2 0.4  0.6 0.3 0.4  0.6 0.2 0.4  0.7 0.3 0.4  0.7 0.2 0.4  0.8 0.3 0.4  0.8 0.2 0.4  0.9 0.3 0.4  0.9 0.2 0.4  1 0.3 0.4  1 0.2 0.4  0.1 0.4 0.4  0 0.4 0.4  0.2 0.4 0.4  0.3 0.4 0.4  0.4 0.4 0.4  0.5 0.4 0.4  0.6 0.4 0.4  0.7 0.4 0.4  0.8 0.4 0.4  0.9 0.4 0.4  1 0.4 0.4  0.1 0.5 0.4  0 0.5 0.4  0.2 0.5 0.4  0.3 0.5 0.4  0.4 0.5 0.4  0.5 0.5 0.4  0.6 0.5 0.4  0.7 0.5 0.4  0.8 0.5 0.4  0.9 0.5 0.4  1 0.5 0.4  0.1 0.6 0.4  0 0.6 0.4  0.2 0.6 0.4  0.3 0.6 0.4  0.4 0.6 0.4  0.5 0.6 0.4  0.6 0.6 0.4  0.7 0.6 0.4  0.8 0.6 0.4  0.9 0.6 0.4  1 0.6 0.4  0.1 0.7 0.4  0 0.7 0.4  0.2 0.7 0.4  0.3 0.7 0.4  0.4 0.7 0.4  0.5 0.7 0.4  0.6 0.7 0.4  0.7 0.7 0.4  0.8 0.7 0.4  0.9 0.7 0.4  1 0.7 0.4  0.1 0.8 0.4  0 0.8 0.4  0.2 0.8 0.4  0.3 0.8 0.4  0.4 0.8 0.4  0.5 0.8 0.4  0.6 0.8 0.4  0.7 0.8 0.4  0.8 0.8 0.4  0.9 0.8 0.4  1 0.8 0.4  0.1 0.3 0.5  0.1 0.2 0.5  0 0.2 0.5  0 0.3 0.5  0.2 0.3 0.5  0.2 0.2 0.5  0.3 0.3 0.5  0.3 0.2 0.5  0.4 0.3 0.5  0.4 0.2 0.5  0.5 0.3 0.5  0.5 0.2 0.5  0.6 0.3 0.5  0.6 0.2 0.5  0.7 0.3 0.5  0.7 0.2 0.5  0.8 0.3 0.5  0.8 0.2 0.5  0.9 0.3 0.5  0.9 0.2 0.5  1 0.3 0.5  1 0.2 0.5  0.1 0.4 0.5  0 0.4 0.5  0.2 0.4 0.5  0.3 0.4 0.5  0.4 0.4 0.5  0.5 0.4 0.5  0.6 0.4 0.5  0.7 0.4 0.5  0.8 0.4 0.5  0.9 0.4 0.5  1 0.4 0.5  0.1 0.5 0.5  0 0.5 0.5  0.2 0.5 0.5  0.3 0.5 0.5  0.4 0.5 0.5  0.5 0.5 0.5  0.6 0.5 0.5  0.7 0.5 0.5  0.8 0.5 0.5  0.9 0.5 0.5  1 0.5 0.5  0.1 0.6 0.5  0 0.6 0.5  0.2 0.6 0.5  0.3 0.6 0.5  0.4 0.6 0.5  0.5 0.6 0.5  0.6 0.6 0.5  0.7 0.6 0.5  0.8 0.6 0.5  0.9 0.6 0.5  1 0.6 0.5  0.1 0.7 0.5  0 0.7 0.5  0.2 0.7 0.5  0.3 0.7 0.5  0.4 0.7 0.5  0.5 0.7 0.5  0.6 0.7 0.5  0.7 0.7 0.5  0.8 0.7 0.5  0.9 0.7 0.5  1 0.7 0.5  0.1 0.8 0.5  0 0.8 0.5  0.2 0.8 0.5  0.3 0.8 0.5  0.4 0.8 0.5  0.5 0.8 0.5  0.6 0.8 0.5  0.7 0.8 0.5  0.8 0.8 0.5  0.9 0.8 0.5  1 0.8 0.5  0.1 0.3 0.6  0.1 0.2 0.6  0 0.2 0.6  0 0.3 0.6  0.2 0.3 0.6  0.2 0.2 0.6  0.3 0.3 0.6  0.3 0.2 0.6  0.4 0.3 0.6  0.4 0.2 0.6  0.5 0.3 0.6  0.5 0.2 0.6  0.6 0.3 0.6  0.6 0.2 0.6  0.7 0.3 0.6  0.7 0.2 0.6  0.8 0.3 0.6  0.8 0.2 0.6  0.9 0.3 0.6  0.9 0.2 0.6  1 0.3 0.6  1 0.2 0.6  0.1 0.4 0.6  0 0.4 0.6  0.2 0.4 0.6  0.3 0.4 0.6  0.4 0.4 0.6  0.5 0.4 0.6  0.6 0.4 0.6  0.7 0.4 0.6  0.8 0.4 0.6  0.9 0.4 0.6  1 0.4 0.6  0.1 0.5 0.6  0 0.5 0.6  0.2 0.5 0.6  0.3 0.5 0.6  0.4 0.5 0.6  0.5 0.5 0.6  0.6 0.5 0.6  0.7 0.5 0.6  0.8 0.5 0.6  0.9 0.5 0.6  1 0.5 0.6  0.1 0.6 0.6  0 0.6 0.6  0.2 0.6 0.6  0.3 0.6 0.6  0.4 0.6 0.6  0.5 0.6 0.6  0.6 0.6 0.6  0.7 0.6 0.6  0.8 0.6 0.6  0.9 0.6 0.6  1 0.6 0.6  0.1 0.7 0.6  0 0.7 0.6  0.2 0.7 0.6  0.3 0.7 0.6  0.4 0.7 0.6  0.5 0.7 0.6  0.6 0.7 0.6  0.7 0.7 0.6  0.8 0.7 0.6  0.9 0.7 0.6  1 0.7 0.6  0.1 0.8 0.6  0 0.8 0.6  0.2 0.8 0.6  0.3 0.8 0.6  0.4 0.8 0.6  0.5 0.8 0.6  0.6 0.8 0.6  0.7 0.8 0.6  0.8 0.8 0.6  0.9 0.8 0.6  1 0.8 0.6  0.1 0.3 0.7  0.1 0.2 0.7  0 0.2 0.7  0 0.3 0.7  0.2 0.3 0.7  0.2 0.2 0.7  0.3 0.3 0.7  0.3 0.2 0.7  0.4 0.3 0.7  0.4 0.2 0.7  0.5 0.3 0.7  0.5 0.2 0.7  0.6 0.3 0.7  0.6 0.2 0.7  0.7 0.3 0.7  0.7 0.2 0.7  0.8 0.3 0.7  0.8 0.2 0.7  0.9 0.3 0.7  0.9 0.2 0.7  1 0.3 0.7  1 0.2 0.7  0.1 0.4 0.7  0 0.4 0.7  0.2 0.4 0.7  0.3 0.4 0.7  0.4 0.4 0.7  0.5 0.4 0.7  0.6 0.4 0.7  0.7 0.4 0.7  0.8 0.4 0.7  0.9 0.4 0.7  1 0.4 0.7  0.1 0.5 0.7  0 0.5 0.7  0.2 0.5 0.7  0.3 0.5 0.7  0.4 0.5 0.7  0.5 0.5 0.7  0.6 0.5 0.7  0.7 0.5 0.7  0.8 0.5 0.7  0.9 0.5 0.7  1 0.5 0.7  0.1 0.6 0.7  0 0.6 0.7  0.2 0.6 0.7  0.3 0.6 0.7  0.4 0.6 0.7  0.5 0.6 0.7  0.6 0.6 0.7  0.7 0.6 0.7  0.8 0.6 0.7  0.9 0.6 0.7  1 0.6 0.7  0.1 0.7 0.7  0 0.7 0.7  0.2 0.7 0.7  0.3 0.7 0.7  0.4 0.7 0.7  0.5 0.7 0.7  0.6 0.7 0.7  0.7 0.7 0.7  0.8 0.7 0.7  0.9 0.7 0.7  1 0.7 0.7  0.1 0.8 0.7  0 0.8 0.7  0.2 0.8 0.7  0.3 0.8 0.7  0.4 0.8 0.7  0.5 0.8 0.7  0.6 0.8 0.7  0.7 0.8 0.7  0.8 0.8 0.7  0.9 0.8 0.7  1 0.8 0.7  0.1 0.3 0.8  0.1 0.2 0.8  0 0.2 0.8  0 0.3 0.8  0.2 0.3 0.8  0.2 0.2 0.8  0.3 0.3 0.8  0.3 0.2 0.8  0.4 0.3 0.8  0.4 0.2 0.8  0.5 0.3 0.8  0.5 0.2 0.8  0.6 0.3 0.8  0.6 0.2 0.8  0.7 0.3 0.8  0.7 0.2 0.8  0.8 0.3 0.8  0.8 0.2 0.8  0.9 0.3 0.8  0.9 0.2 0.8  1 0.3 0.8  1 0.2 0.8  0.1 0.4 0.8  0 0.4 0.8  0.2 0.4 0.8  0.3 0.4 0.8  0.4 0.4 0.8  0.5 0.4 0.8  0.6 0.4 0.8  0.7 0.4 0.8  0.8 0.4 0.8  0.9 0.4 0.8  1 0.4 0.8  0.1 0.5 0.8  0 0.5 0.8  0.2 0.5 0.8  0.3 0.5 0.8  0.4 0.5 0.8  0.5 0.5 0.8  0.6 0.5 0.8  0.7 0.5 0.8  0.8 0.5 0.8  0.9 0.5 0.8  1 0.5 0.8  0.1 0.6 0.8  0 0.6 0.8  0.2 0.6 0.8  0.3 0.6 0.8  0.4 0.6 0.8  0.5 0.6 0.8  0.6 0.6 0.8  0.7 0.6 0.8  0.8 0.6 0.8  0.9 0.6 0.8  1 0.6 0.8  0.1 0.7 0.8  0 0.7 0.8  0.2 0.7 0.8  0.3 0.7 0.8  0.4 0.7 0.8  0.5 0.7 0.8  0.6 0.7 0.8  0.7 0.7 0.8  0.8 0.7 0.8  0.9 0.7 0.8  1 0.7 0.8  0.1 0.8 0.8  0 0.8 0.8  0.2 0.8 0.8  0.3 0.8 0.8  0.4 0.8 0.8  0.5 0.8 0.8  0.6 0.8 0.8  0.7 0.8 0.8  0.8 0.8 0.8  0.9 0.8 0.8  1 0.8 0.8  </DataArray>
</Points>
<Cells>
[...]
<PointData  Vectors="f_23"> 
<DataArray  type="Float64"  Name="f_23"  NumberOfComponents="3" format="ascii">-6.6715762454987767e-04 -2.0370536792677102e-04 -9.9974789229785483e-06  -5.7659194094623694e-04 -3.0134153461441947e-04 -1.2075094983389676e-05  -6.6344001151201568e-04 -2.1476005569291952e-04 -2.1196891018421319e-05  7.7642357474484058e-02 -2.5964394953024566e-04 -5.0438080971731633e-04  -5.8333559536799051e-04 -2.8888963022963120e-04 -1.8601160758488637e-05  -6.6490672441384797e-04 -1.9697721247954650e-04 -1.6383904459658060e-05  -7.4635652259794375e-04 -1.3410580859759083e-04 -1.8923879652216250e-05  7.8353698023452295e-02 -1.3534148198207619e-03 -1.3931134512808854e-03  -4.5971900696725710e-04 -4.5706235810121892e-04 6.6487016819518592e-06  -5.4290641508331300e-04 -3.4823405849147772e-04 -1.9417375466099168e-05  7.8441098559176345e-02 -2.5504657845140902e-05 -2.6521203768615017e-04  -4.6318088166371761e-04 -4.7120676908354506e-04 -4.0668638325277151e-06  -3.1657374884277019e-04 -5.8223794130577084e-04 4.8164888851191287e-05  -3.9572916374757029e-04 -4.5567544444403973e-04 -2.2692138762386513e-06  7.8496999096427919e-02 1.4519548867810523e-04 -3.6308079233934973e-04  -3.0945467137912002e-04 -6.4620593681793091e-04 4.5064552047503584e-05  -1.5735646298341497e-04 -6.5104503421757132e-04 1.0518246812596236e-04  -2.1818297937548257e-04 -5.2032703988006822e-04 2.8511270696702601e-05  7.8718780510037598e-02 3.3908616208622183e-04 -5.6099579301061291e-04  -1.4577102372392096e-04 -7.8659669441225749e-04 1.3379882064872196e-04  1.2427102427151648e-05 -6.3042819648044123e-04 1.4977618182146574e-04  -1.6069777446112850e-05 -5.2003739811718711e-04 5.9065672743074780e-05  7.9135074851069048e-02 5.7914743722417832e-04 -8.2876736541802353e-04  3.2515646442866194e-06 -8.4361078873134701e-04 2.3706600084798224e-04  2.1148019209066545e-04 -5.0413297007668306e-04 1.4608771581999335e-04  2.1471664803165429e-04 -4.3887909065547980e-04 6.8284643045503116e-05  7.9726680458181640e-02 7.9310433303879607e-04 -1.0925071266141835e-03  1.4492406601897254e-04 -7.5937021672473960e-04 2.9238812070580297e-04  4.7235095897470440e-04 -3.0798487264380398e-04 8.6259664308302691e-05  4.8305081743933742e-04 -2.9146317630634197e-04 4.4981819728244276e-05  8.0212568530875508e-02 9.1842594696901802e-04 -1.1609549517976646e-03  3.4170631914028034e-04 -5.3094731435776869e-04 2.3452148621068045e-04  8.0286083563698069e-04 -1.3092482737083773e-04 2.7916180705125331e-05  7.8963075807343100e-04 -1.3687493173161741e-04 1.1119733139075971e-05  7.9639314499184877e-02 9.0341785990771654e-04 -5.8112807705212378e-04  6.5253319700013220e-04 -2.6709029598462347e-04 9.2376056571648744e-05  1.0971116246948430e-03 -4.5431105775840587e-05 2.8651003059954183e-05  1.0863342219293072e-03 -4.7670162357313543e-05 1.7487203398780180e-05  7.6859532720606694e-02 6.2689538892100351e-04 5.2782390954899034e-04  9.9694068019974091e-04 -9.4618008166820133e-05 6.8463696007386936e-05  1.2479165560891129e-03 -2.2542379583375910e-05 4.0029693574785162e-05  1.2578736378022950e-03 -1.9847741377991507e-05 9.1962700410058780e-06  7.4203157013030430e-02 -1.2108278197373052e-04 -1.8129421327532289e-03  1.2247524690542548e-03 -6.0994171904427168e-05 5.4694912207853303e-05  -7.8320535092298211e-04 -1.3347264705954894e-04 -3.2428062932216508e-05  1.1305814723940755e-01 3.2765089082064205e-04 -3.9979916856069101e-04  -8.6074321992479048e-04 -8.2641357807826442e-05 -2.4437673128707877e-05  1.1415801425016241e-01 -1.3260829773403498e-03 -1.3966571729019856e-03  -6.4708406807924908e-04 -2.2607001877479838e-04 -4.5667801779147430e-05  1.1373430645142824e-01 3.2513538012957175e-04 -2.0540850697048008e-04  -4.6961625737246997e-04 -3.0442640900735902e-04 -5.1866262885050779e-05  1.1396756402063450e-01 3.6846708349645306e-04 -1.9023687506227949e-04  -2.4797465704270739e-04 -3.5128036151563192e-04 -4.9799992198296189e-05  1.1413515984312025e-01 4.9520035299201583e-04 -1.9413265127537447e-04  1.2541818136082133e-05 -3.5390447365207621e-04 -4.2310921196334728e-05  1.1435937583650406e-01 6.3730785542847192e-04 -1.7379843619316128e-04  3.0121115052068214e-04 -3.0411308583789930e-04 -3.3872328623768365e-05  1.1459360886623048e-01 6.8269538566263863e-04 -7.3751246771981964e-05  6.0012675343787424e-04 -2.0897603873487998e-04 -2.8908171059521628e-05  1.1464176872126412e-01 5.2813465731552654e-04 1.7271955572332266e-04  8.9402935313529744e-04 -1.0259673504108887e-04 -2.6536003258458087e-05  1.1409238501238560e-01 1.7462065158436400e-04 5.8910226251717975e-04  1.1528737362578852e-03 -4.0205331007919186e-05 -3.8206928977490597e-06  1.1243015554896339e-01 -2.5168462206637618e-04 6.7708908939200169e-04  1.2983842993100965e-03 -1.9680049629617329e-05 -1.3864958158871125e-05  1.1015024521643532e-01 -7.8215904694417765e-05 -2.4006478012599444e-03  -8.6276504705684208e-04 -8.4255403955257372e-05 -3.6818799731712323e-05  1.2451399790331789e-01 1.8562793777155854e-04 -3.1096334697300771e-04  -9.3338789665560506e-04 -4.9974313863658973e-05 -2.5854197908060799e-05  1.2545696665055076e-01 -8.9484088613223296e-04 -1.3065363156995757e-03  -7.2190950374233448e-04 -1.4720406091788687e-04 -5.5868726696072073e-05  1.2508734961447351e-01 3.1595947587938211e-04 -1.1954871709025061e-04  -5.2228163993251386e-04 -2.0292171738825585e-04 -7.2011104536047406e-05  1.2534441834316606e-01 3.0211668149338018e-04 -7.4217348557546295e-05  -2.6774381553691998e-04 -2.3695913886666089e-04 -8.2263520994909427e-05  1.2556440407090164e-01 3.2323028262513633e-04 -2.7359102737116761e-05  3.3133840165306619e-05 -2.4030581272838108e-04 -8.4724151486979181e-05  1.2576942842970401e-01 3.4519999257823502e-04 5.5239095940070664e-05  3.6087061364585251e-04 -2.0900162250217372e-04 -7.6790208404832130e-05  1.2586102630876828e-01 2.9377455221453653e-04 2.0991871377261379e-04  6.8268646496395997e-04 -1.4706224175836785e-04 -5.9619180543067990e-05  1.2565753049049341e-01 1.0449909876780782e-04 4.6204595907846775e-04  9.6926885439342907e-04 -7.1788025421100064e-05 -4.1960702914714896e-05  1.2499689744808767e-01 -1.9588452870701381e-04 7.2319047865412878e-04  1.1984445111371481e-03 -2.7800117148149930e-05 -1.4449816888753613e-05  1.2382522467259907e-01 -4.6294089914783492e-04 4.1725619953694645e-04  1.3232859057250373e-03 -1.5420801418967245e-05 -1.9341951552897671e-05  1.2183957999524056e-01 -5.3282218757287996e-05 -2.2775480591742956e-03  -9.1650431112475503e-04 -5.1660290575371060e-05 -3.6181191782429880e-05  1.1324638742740874e-01 1.3528902151793224e-04 -2.6005076147190919e-04  -9.7907371071715224e-04 -3.0940412574703776e-05 -2.5489772772007432e-05  1.1404964022200093e-01 -5.2183253544313586e-04 -1.2042295065558450e-03  -7.7753683184871470e-04 -9.6980796534235620e-05 -5.4248886762667033e-05  1.1374948077925084e-01 1.9725982955201332e-04 -7.9020508166722635e-05  -5.6623124040663627e-04 -1.4105550035196243e-04 -7.0136534269427670e-05  1.1397455658212295e-01 1.4478013580815737e-04 -2.4909527993443934e-05  -2.9009626796455776e-04 -1.7237905448391064e-04 -8.1157591493018541e-05  1.1418380878624823e-01 8.8620082461813909e-05 2.9927057344641832e-05  3.8192746536933999e-05 -1.8287907745542626e-04 -8.4167928703387314e-05  1.1436183560385282e-01 2.4013330983460392e-05 1.1593066535993473e-04  3.9417295747095509e-04 -1.6920342486697899e-04 -7.5098531239385915e-05  1.1438533703139744e-01 -7.1961832950644708e-05 2.5694324363403068e-04  7.3790912381137426e-04 -1.3189869257053193e-04 -5.5120467406298067e-05  1.1409755798709262e-01 -2.0095856792141475e-04 4.5850218639513306e-04  1.0288684788741084e-03 -7.4404786796826531e-05 -3.6600597986899901e-05  1.1344506580137247e-01 -2.9978288434916466e-04 5.9651146442928917e-04  1.2356020919582762e-03 -2.9072956229103887e-05 -1.4044967712765298e-05  1.1254831731650394e-01 -2.4424244539656542e-04 1.8438161809734561e-04  1.3435907227011964e-03 -2.3085759884475395e-05 -1.6081148072882956e-05  1.1112990376207757e-01 1.1005687590557359e-04 -1.9642236770363161e-03  -9.5460623382405125e-04 -3.0352763068635151e-05 -3.5396281289946547e-05  7.6985823571782172e-02 8.8492987388661521e-05 -2.4246799586487300e-04  -1.0067408724618403e-03 -1.6515863115363310e-05 -2.5522459536764754e-05  7.6914535888948504e-02 -4.3255257872911417e-04 -1.0364076641885165e-03  -8.2903750992346806e-04 -6.2363249234342473e-05 -4.7975960152182791e-05  7.7406480693054808e-02 3.8290199689975534e-05 -7.3675890860503898e-05  -6.1986349358618051e-04 -1.0293806088525607e-04 -5.8220179115021089e-05  7.7536536463498923e-02 -8.9216402296828535e-05 -2.4578861756008906e-05  -3.3404880211363830e-04 -1.4085790459110787e-04 -6.5022806474775228e-05  7.7639567857734737e-02 -2.1748349233491140e-04 1.6938653029301112e-05  1.1490201747649674e-05 -1.6453785565656931e-04 -6.5926617783788487e-05  7.7723698373464142e-02 -3.5557051221717751e-04 9.4999811458754930e-05  3.8827455181813072e-04 -1.6835102343811409e-04 -5.6109601060052154e-05  7.7696432135635665e-02 -4.9170009473451502e-04 2.2625330359973700e-04  7.5659582206756180e-04 -1.5067462047010791e-04 -3.6461002925149023e-05  7.7459143930595692e-02 -5.8812544678732458e-04 3.9522985489886191e-04  1.0737945184687934e-03 -1.1064026555681970e-04 -2.0644190742403298e-05  7.6979434819546902e-02 -5.7801323823210944e-04 4.7926122947908090e-04  1.2764736650291034e-03 -5.7785047404861717e-05 -7.3976378705792186e-06  7.6130575054695643e-02 -4.3575612702497087e-04 1.4107256627563441e-04  1.3699179426549947e-03 -3.9853790762212640e-05 -9.5974729750494184e-06  7.5626649340895857e-02 1.9705747265880085e-04 -1.5847847047103874e-03  -9.9282219201507612e-04 -2.7377873572402715e-05 -2.1342201283950035e-05  -1.0102823169794086e-03 -1.6033154191609486e-05 -2.3851620622322606e-05  -1.0186600925299284e-03 -1.4070498494518004e-05 -1.8796446634584156e-05  -1.0261074838295067e-03 -1.9024765016330438e-05 -1.9049040397198682e-05  -8.9677332376168805e-04 -5.3266805742982841e-05 -3.7860598279345824e-05  -9.3346326416674267e-04 -3.9922383686424180e-05 -4.1475281109177499e-05  -7.2022625521070915e-04 -8.7444102275214934e-05 -5.0915830206122107e-05  -7.8788157232631193e-04 -7.5489444041011610e-05 -5.4632988295600069e-05  -4.6453100338877143e-04 -1.2457581610230003e-04 -5.7563643036944551e-05  -5.6147057172132317e-04 -1.1690276819584073e-04 -6.4296110563006933e-05  -1.4072767548655595e-04 -1.5197180936362491e-04 -5.9826617960614801e-05  -2.6292865869974254e-04 -1.4966238091256094e-04 -7.0441535914409474e-05  2.3010893440701246e-04 -1.6193986289555928e-04 -5.5314732233748610e-05  8.9536944080938376e-05 -1.6541128368539854e-04 -6.8558955444741624e-05  6.1077229396947017e-04 -1.5015094232111593e-04 -4.1262886429301034e-05  4.6452116205876454e-04 -1.6035851188499908e-04 -5.5233921893323675e-05  9.5655831998475715e-04 -1.1342577168082993e-04 -2.3664761789677295e-05  8.1846551430140907e-04 -1.3152730017882395e-04 -3.6358823314336649e-05  1.2439834017782799e-03 -6.5713331060849645e-05 -8.4039255582304987e-06  1.1231903688941408e-03 -8.6451145046833678e-05 -1.9884049661740267e-05  1.3729633844365848e-03 -4.5956089369084139e-05 4.9224432169178260e-06  1.2691074641523778e-03 -5.4001794301528095e-05 -7.8846085841931833e-06  1.1286278367354302e-01 -2.1896449654895287e-04 -1.3346076175049782e-04  -5.9711071680072119e-04 -2.8763961883119735e-04 -4.3470663650383721e-05  -6.8759669931231222e-04 -1.8819086541872513e-04 -3.6703264464333426e-05  1.1375863304978714e-01 -1.3331399199918025e-03 -1.1105577880646030e-03  1.1358898024302738e-01 -3.6956223357345467e-05 -1.0735618302373287e-04  -4.4881818454560614e-04 -4.9476569879436242e-04 -4.7534472983788213e-05  1.1351891390983289e-01 1.3488711616321559e-04 -2.9916218640505015e-04  -2.4244967278603489e-04 -7.3296339686538398e-04 -2.8859639308689878e-06  1.1355475811606745e-01 3.4892261671640537e-04 -6.1480181406950440e-04  -1.9167934448165837e-05 -9.9072610170424977e-04 1.2172681331986504e-04  1.1381975577876713e-01 6.8006324598715508e-04 -1.0725347627378551e-03  1.5532851523680639e-04 -1.2133602676795187e-03 3.3311679033194155e-04  1.1449843654498139e-01 1.0687756232795867e-03 -1.5833106212777700e-03  2.2828232220748629e-04 -1.2763567808802062e-03 5.6528645252839043e-04  1.1576562932357941e-01 1.2313319902248633e-03 -1.8612737909040617e-03  2.6461629127383872e-04 -1.0517824901293822e-03 6.3952925765122588e-04  1.1627945398176392e-01 1.2209277980224794e-03 -1.4551326698872423e-03  4.7890056194577831e-04 -6.0590833273056570e-04 3.8128290390446781e-04  1.1228572647066029e-01 1.1722692240306012e-03 1.9364806061100405e-04  8.0651603786874879e-04 -2.3333939891114833e-04 1.9879014656821190e-04  1.0747053711258592e-01 -9.9434949262546413e-05 -3.4938685555553016e-03  1.0944473675083329e-03 -1.5815549579642382e-04 2.1425644168507048e-04  1.7224902897675345e-01 4.4999322216726883e-04 -7.1706377603609521e-05  1.7284713096257026e-01 -1.3571462211953945e-03 -1.1312012378666407e-03  1.7282552837262360e-01 3.7358084852710837e-04 -7.6872034949075499e-05  1.7309117024653325e-01 4.5526795233715876e-04 -1.9074579132615565e-04  1.7317251469127573e-01 6.9296621343723538e-04 -3.0356120296792013e-04  1.7328744003152941e-01 1.0331410373533073e-03 -4.0073851520891902e-04  1.7353808762254413e-01 1.3129411160884826e-03 -3.8907487359559056e-04  1.7390714084331782e-01 1.1960133806139185e-03 -1.1648341300539624e-04  1.7381695767064126e-01 4.9146485089514985e-04 4.7271489487677858e-04  1.7170019751029711e-01 -3.7197240409169927e-04 5.7001644343255989e-04  1.6718587497656204e-01 3.1701607350256150e-04 -4.5505941635470386e-03  1.9126571368382206e-01 2.6898088158443912e-04 -2.5424384968449075e-05  1.9162927294618937e-01 -8.9769563655219128e-04 -1.0945798043177424e-03  1.9171155517487121e-01 3.9527515015471684e-04 -3.3275433573423315e-05  1.9200544920381360e-01 3.9223117457904755e-04 -1.0448261892356975e-04  1.9217130604937654e-01 4.7075637880937055e-04 -1.4675884315107314e-04  1.9231688901334251e-01 5.9725098179338749e-04 -1.6520540738193705e-04  1.9244706257019448e-01 6.5864639661216751e-04 -1.2051079149114290e-04  1.9242492426244548e-01 4.7179251368169577e-04 5.9518750615185772e-05  1.9189432757733338e-01 -7.1403589907468503e-05 3.7711807220305670e-04  1.9039001947702450e-01 -7.2037058562873432e-04 -4.5586571014495616e-05  1.8670423865082622e-01 2.4389324512122780e-04 -4.3758941808105176e-03  1.7242852563725367e-01 1.9294411571213515e-04 -1.5772721652136466e-05  1.7264133856228400e-01 -4.9324043460846319e-04 -1.0424191850978105e-03  1.7279624363408738e-01 2.7229073281028967e-04 -1.3404361008780691e-05  1.7304798901081739e-01 2.1977734604621387e-04 -6.3641274861136058e-05  1.7321132532153666e-01 1.8079843440779885e-04 -7.9482501399528852e-05  1.7334198985251353e-01 1.5336385659255652e-04 -7.7654669728849255e-05  1.7339523549327718e-01 8.9032017588461189e-05 -4.9955768652570791e-05  1.7320075565125501e-01 -6.9230996731823921e-05 2.8534553668893520e-05  1.7255077715897718e-01 -3.0984709584674003e-04 1.5651600440859479e-04  1.7147727158364104e-01 -4.2629924872605792e-04 -4.5084092098003625e-04  1.6922151006987671e-01 4.6590080164690554e-04 -3.8118612821894152e-03  1.1301460404031702e-01 1.1946173037943041e-04 -1.1751273049334993e-05  1.1243985590485384e-01 -3.9861542212375208e-04 -9.2879843945693579e-04  1.1329271481082029e-01 8.0906235195914693e-05 -4.2335131577089466e-06  1.1343157349141297e-01 -4.5155554741594075e-05 -4.7582303878518715e-05  1.1349229634850207e-01 -1.8220427051326147e-04 -5.2730049089484612e-05  1.1352166217688567e-01 -3.2069109665728700e-04 -2.7690447369585669e-05  1.1349522648166890e-01 -4.6635458375536923e-04 3.3487916816786795e-05  1.1329142607589023e-01 -6.0424493721966460e-04 1.4147120761067534e-04  1.1275873242476743e-01 -6.5456156505571544e-04 2.2272237345162063e-04  1.1183659209189473e-01 -4.9149115816962674e-04 -3.7284561737412688e-04  1.1133556231680597e-01 5.1591918596709013e-04 -2.9834120090443932e-03  -1.0361602179063823e-03 -1.5733286078571717e-05 -1.9021658652348767e-05  -1.0527462993997802e-03 -1.7778306732548569e-05 -1.7852247554860503e-05  -9.5754548903238161e-04 -3.7325570865766150e-05 -4.2887598692247516e-05  -8.1005132019382133e-04 -6.7354488456623503e-05 -6.8154917452875944e-05  -5.8380407724715978e-04 -1.0145519194014100e-04 -8.8448724644525975e-05  -2.8362284954490743e-04 -1.2804951951064382e-04 -1.0222990595166345e-04  7.7152872336169563e-05 -1.3955872675509162e-04 -1.0506317724032096e-04  4.6427539955174694e-04 -1.3214697080080916e-04 -9.2959151190639803e-05  8.2251134213964317e-04 -1.0421249117224422e-04 -7.0641690367833894e-05  1.1272272219918830e-03 -6.5808115128728508e-05 -4.5532899796634226e-05  1.2617477998330437e-03 -4.1081150671563335e-05 -2.0956179210597619e-05  1.2417247486295596e-01 -2.1094325481759991e-04 -4.5913427663799704e-06  -6.3428263398073348e-04 -2.6377621271456327e-04 -7.4189336148496548e-05  -7.3128545633732299e-04 -1.6577006953836308e-04 -5.5350613624308833e-05  1.2506342637542853e-01 -1.3428109340756782e-03 -8.8543122513975504e-04  1.2483997954609916e-01 -3.8183403998584671e-06 7.9104441056605768e-05  -4.5666911668554435e-04 -4.7437965204272600e-04 -1.1195766236524398e-04  1.2466606909771455e-01 1.5838223777368631e-04 -1.0894351558987155e-05  -1.8096919900373971e-04 -7.5518432339506246e-04 -1.0310712830518223e-04  1.2460730129429212e-01 3.7716514369159774e-04 -2.1313632400539028e-04  1.6145512694106507e-04 -1.1358814695398736e-03 1.3514984872699746e-05  1.2475362753664834e-01 8.1036226620034987e-04 -6.2546749678172480e-04  4.7865929463166139e-04 -1.6102827992716675e-03 3.1869112682386853e-04  1.2529069266785181e-01 1.6026827903986708e-03 -1.2739000862275010e-03  5.8743201169984968e-04 -2.0420675342232883e-03 8.5176230880222657e-04  1.2678644705801140e-01 2.4099514354078556e-03 -1.8965045175537187e-03  3.5746846408241117e-04 -2.1049840773273592e-03 1.4310847490470243e-03  1.2912860418974398e-01 1.5992719548040327e-03 -1.9667480019678243e-03  1.9375047612575467e-04 -1.5045777945149024e-03 1.4970684117854491e-03  1.2404827014089573e-01 1.4874056609059513e-03 -1.5390070558718120e-03  2.8307643091415017e-04 -6.5594756288165691e-04 6.1694031667072270e-04  1.1167763105366438e-01 1.7053989775245217e-03 -6.5194186052075741e-03  3.8678542647935742e-04 -4.6690278467264728e-04 9.9473287026755498e-04  1.9114008775259489e-01 4.4952269197924669e-04 -1.4236335936182259e-05  1.9170513296810129e-01 -1.3536999266857616e-03 -8.8159618306446019e-04  1.9168935223817724e-01 3.7966412760327315e-04 5.3546963297820287e-05  1.9193956502521509e-01 4.7763620768228465e-04 -1.7876191544421359e-05  1.9205405332349171e-01 7.8359275704207362e-04 -1.1461867841026535e-04  1.9221234737030396e-01 1.3351200728397641e-03 -2.3200811346353324e-04  1.9247926861502998e-01 2.0769313314218129e-03 -2.8761778987691886e-04  1.9291727212578605e-01 2.4110664241338087e-03 -6.5577578773803527e-05  1.9302349461964663e-01 1.1385119968674300e-03 5.1957446432977263e-04  1.9003220370400420e-01 -1.1989759364785886e-03 7.2965588769462815e-04  1.8136720650062660e-01 1.0704862536827003e-03 -7.6567442009847098e-03  2.1268655889471952e-01 2.8931763160892931e-04 8.9295509531157736e-06  2.1299745449746768e-01 -8.7110388846136451e-04 -8.5924798494331804e-04  2.1309638209880755e-01 4.1364333388938912e-04 7.7748903441563071e-05  2.1338913995068715e-01 4.2467350189972521e-04 4.3208986088647433e-05  2.1358763600135666e-01 5.4938232321529335e-04 2.2215446390941480e-05  2.1378474308286147e-01 7.8111524457103333e-04 1.2211406962000490e-05  2.1399362361528512e-01 1.0051323604458730e-03 1.4643645158068111e-05  2.1407640490152380e-01 8.7817660266974347e-04 3.1481655870494870e-05  2.1331488305705276e-01 -5.9448930892152815e-05 2.6764058373003534e-05  2.1066690322129153e-01 -1.4504091735542005e-03 -2.9208964435034602e-04  2.0430793944902406e-01 5.9500158389700730e-04 -6.9719135640122307e-03  1.9131118090163804e-01 2.1759894186000684e-04 1.4839603902459206e-05  1.9147106680069392e-01 -4.4613872360043223e-04 -8.2286720221765876e-04  1.9163521757970364e-01 2.9735311164298282e-04 8.74385615109