<?xml version="1.0"?>
<VTKFile type="UnstructuredGrid"  version="0.1"  >
<UnstructuredGrid>
<Piece  NumberOfPoints="539" NumberOfCells="2160">
<Points>
<DataArray  type="Float64"  NumberOfComponents="3"  format="ascii">0 0.2 0.2  0.1 0.2 0.2  0.1 0.3 0.2  0.1 0.3 0.3  0.1 0.2 0.3  0 0.2 0.3  0 0.3 0.2  0 0.3 0.3  0.2 0.2 0.2  0.2 0.3 0.2  0.2 0.3 0.3  0.2 0.2 0.3  0.3 0.2 0.2  0.3 0.3 0.2  0.3 0.3 0.3  0.3 0.2 0.3  0.4 0.2 0.2  0.4 0.3 0.2  0.4 0.3 0.3  0.4 0.2 0.3  0.5 0.2 0.2  0.5 0.3 0.2  0.5 0.3 0.3  0.5 0.2 0.3  0.6 0.2 0.2  0.6 0.3 0.2  0.6 0.3 0.3  0.6 0.2 0.3  0.7 0.2 0.2  0.7 0.3 0.2  0.7 0.3 0.3  0.7 0.2 0.3  0.8 0.2 0.2  0.8 0.3 0.2  0.8 0.3 0.3  0.8 0.2 0.3  0.9 0.2 0.2  0.9 0.3 0.2  0.9 0.3 0.3  0.9 0.2 0.3  1 0.2 0.2  1 0.3 0.2  1 0.3 0.3  1 0.2 0.3  0.1 0.4 0.2  0.1 0.4 0.3  0 0.4 0.2  0 0.4 0.3  0.2 0.4 0.2  0.2 0.4 0.3  0.3 0.4 0.2  0.3 0.4 0.3  0.4 0.4 0.2  0.4 0.4 0.3  0.5 0.4 0.2  0.5 0.4 0.3  0.6 0.4 0.2  0.6 0.4 0.3  0.7 0.4 0.2  0.7 0.4 0.3  0.8 0.4 0.2  0.8 0.4 0.3  0.9 0.4 0.2  0.9 0.4 0.3  1 0.4 0.2  1 0.4 0.3  0.1 0.5 0.2  0.1 0.5 0.3  0 0.5 0.2  0 0.5 0.3  0.2 0.5 0.2  0.2 0.5 0.3  0.3 0.5 0.2  0.3 0.5 0.3  0.4 0.5 0.2  0.4 0.5 0.3  0.5 0.5 0.2  0.5 0.5 0.3  0.6 0.5 0.2  0.6 0.5 0.3  0.7 0.5 0.2  0.7 0.5 0.3  0.8 0.5 0.2  0.8 0.5 0.3  0.9 0.5 0.2  0.9 0.5 0.3  1 0.5 0.2  1 0.5 0.3  0.1 0.6 0.2  0.1 0.6 0.3  0 0.6 0.2  0 0.6 0.3  0.2 0.6 0.2  0.2 0.6 0.3  0.3 0.6 0.2  0.3 0.6 0.3  0.4 0.6 0.2  0.4 0.6 0.3  0.5 0.6 0.2  0.5 0.6 0.3  0.6 0.6 0.2  0.6 0.6 0.3  0.7 0.6 0.2  0.7 0.6 0.3  0.8 0.6 0.2  0.8 0.6 0.3  0.9 0.6 0.2  0.9 0.6 0.3  1 0.6 0.2  1 0.6 0.3  0.1 0.7 0.2  0.1 0.7 0.3  0 0.7 0.2  0 0.7 0.3  0.2 0.7 0.2  0.2 0.7 0.3  0.3 0.7 0.2  0.3 0.7 0.3  0.4 0.7 0.2  0.4 0.7 0.3  0.5 0.7 0.2  0.5 0.7 0.3  0.6 0.7 0.2  0.6 0.7 0.3  0.7 0.7 0.2  0.7 0.7 0.3  0.8 0.7 0.2  0.8 0.7 0.3  0.9 0.7 0.2  0.9 0.7 0.3  1 0.7 0.2  1 0.7 0.3  0.1 0.8 0.2  0.1 0.8 0.3  0 0.8 0.2  0 0.8 0.3  0.2 0.8 0.2  0.2 0.8 0.3  0.3 0.8 0.2  0.3 0.8 0.3  0.4 0.8 0.2  0.4 0.8 0.3  0.5 0.8 0.2  0.5 0.8 0.3  0.6 0.8 0.2  0.6 0.8 0.3  0.7 0.8 0.2  0.7 0.8 0.3  0.8 0.8 0.2  0.8 0.8 0.3  0.9 0.8 0.2  0.9 0.8 0.3  1 0.8 0.2  1 0.8 0.3  0.1 0.3 0.4  0.1 0.2 0.4  0 0.2 0.4  0 0.3 0.4  0.2 0.3 0.4  0.2 0.2 0.4  0.3 0.3 0.4  0.3 0.2 0.4  0.4 0.3 0.4  0.4 0.2 0.4  0.5 0.3 0.4  0.5 0.2 0.4  0.6 0.3 0.4  0.6 0.2 0.4  0.7 0.3 0.4  0.7 0.2 0.4  0.8 0.3 0.4  0.8 0.2 0.4  0.9 0.3 0.4  0.9 0.2 0.4  1 0.3 0.4  1 0.2 0.4  0.1 0.4 0.4  0 0.4 0.4  0.2 0.4 0.4  0.3 0.4 0.4  0.4 0.4 0.4  0.5 0.4 0.4  0.6 0.4 0.4  0.7 0.4 0.4  0.8 0.4 0.4  0.9 0.4 0.4  1 0.4 0.4  0.1 0.5 0.4  0 0.5 0.4  0.2 0.5 0.4  0.3 0.5 0.4  0.4 0.5 0.4  0.5 0.5 0.4  0.6 0.5 0.4  0.7 0.5 0.4  0.8 0.5 0.4  0.9 0.5 0.4  1 0.5 0.4  0.1 0.6 0.4  0 0.6 0.4  0.2 0.6 0.4  0.3 0.6 0.4  0.4 0.6 0.4  0.5 0.6 0.4  0.6 0.6 0.4  0.7 0.6 0.4  0.8 0.6 0.4  0.9 0.6 0.4  1 0.6 0.4  0.1 0.7 0.4  0 0.7 0.4  0.2 0.7 0.4  0.3 0.7 0.4  0.4 0.7 0.4  0.5 0.7 0.4  0.6 0.7 0.4  0.7 0.7 0.4  0.8 0.7 0.4  0.9 0.7 0.4  1 0.7 0.4  0.1 0.8 0.4  0 0.8 0.4  0.2 0.8 0.4  0.3 0.8 0.4  0.4 0.8 0.4  0.5 0.8 0.4  0.6 0.8 0.4  0.7 0.8 0.4  0.8 0.8 0.4  0.9 0.8 0.4  1 0.8 0.4  0.1 0.3 0.5  0.1 0.2 0.5  0 0.2 0.5  0 0.3 0.5  0.2 0.3 0.5  0.2 0.2 0.5  0.3 0.3 0.5  0.3 0.2 0.5  0.4 0.3 0.5  0.4 0.2 0.5  0.5 0.3 0.5  0.5 0.2 0.5  0.6 0.3 0.5  0.6 0.2 0.5  0.7 0.3 0.5  0.7 0.2 0.5  0.8 0.3 0.5  0.8 0.2 0.5  0.9 0.3 0.5  0.9 0.2 0.5  1 0.3 0.5  1 0.2 0.5  0.1 0.4 0.5  0 0.4 0.5  0.2 0.4 0.5  0.3 0.4 0.5  0.4 0.4 0.5  0.5 0.4 0.5  0.6 0.4 0.5  0.7 0.4 0.5  0.8 0.4 0.5  0.9 0.4 0.5  1 0.4 0.5  0.1 0.5 0.5  0 0.5 0.5  0.2 0.5 0.5  0.3 0.5 0.5  0.4 0.5 0.5  0.5 0.5 0.5  0.6 0.5 0.5  0.7 0.5 0.5  0.8 0.5 0.5  0.9 0.5 0.5  1 0.5 0.5  0.1 0.6 0.5  0 0.6 0.5  0.2 0.6 0.5  0.3 0.6 0.5  0.4 0.6 0.5  0.5 0.6 0.5  0.6 0.6 0.5  0.7 0.6 0.5  0.8 0.6 0.5  0.9 0.6 0.5  1 0.6 0.5  0.1 0.7 0.5  0 0.7 0.5  0.2 0.7 0.5  0.3 0.7 0.5  0.4 0.7 0.5  0.5 0.7 0.5  0.6 0.7 0.5  0.7 0.7 0.5  0.8 0.7 0.5  0.9 0.7 0.5  1 0.7 0.5  0.1 0.8 0.5  0 0.8 0.5  0.2 0.8 0.5  0.3 0.8 0.5  0.4 0.8 0.5  0.5 0.8 0.5  0.6 0.8 0.5  0.7 0.8 0.5  0.8 0.8 0.5  0.9 0.8 0.5  1 0.8 0.5  0.1 0.3 0.6  0.1 0.2 0.6  0 0.2 0.6  0 0.3 0.6  0.2 0.3 0.6  0.2 0.2 0.6  0.3 0.3 0.6  0.3 0.2 0.6  0.4 0.3 0.6  0.4 0.2 0.6  0.5 0.3 0.6  0.5 0.2 0.6  0.6 0.3 0.6  0.6 0.2 0.6  0.7 0.3 0.6  0.7 0.2 0.6  0.8 0.3 0.6  0.8 0.2 0.6  0.9 0.3 0.6  0.9 0.2 0.6  1 0.3 0.6  1 0.2 0.6  0.1 0.4 0.6  0 0.4 0.6  0.2 0.4 0.6  0.3 0.4 0.6  0.4 0.4 0.6  0.5 0.4 0.6  0.6 0.4 0.6  0.7 0.4 0.6  0.8 0.4 0.6  0.9 0.4 0.6  1 0.4 0.6  0.1 0.5 0.6  0 0.5 0.6  0.2 0.5 0.6  0.3 0.5 0.6  0.4 0.5 0.6  0.5 0.5 0.6  0.6 0.5 0.6  0.7 0.5 0.6  0.8 0.5 0.6  0.9 0.5 0.6  1 0.5 0.6  0.1 0.6 0.6  0 0.6 0.6  0.2 0.6 0.6  0.3 0.6 0.6  0.4 0.6 0.6  0.5 0.6 0.6  0.6 0.6 0.6  0.7 0.6 0.6  0.8 0.6 0.6  0.9 0.6 0.6  1 0.6 0.6  0.1 0.7 0.6  0 0.7 0.6  0.2 0.7 0.6  0.3 0.7 0.6  0.4 0.7 0.6  0.5 0.7 0.6  0.6 0.7 0.6  0.7 0.7 0.6  0.8 0.7 0.6  0.9 0.7 0.6  1 0.7 0.6  0.1 0.8 0.6  0 0.8 0.6  0.2 0.8 0.6  0.3 0.8 0.6  0.4 0.8 0.6  0.5 0.8 0.6  0.6 0.8 0.6  0.7 0.8 0.6  0.8 0.8 0.6  0.9 0.8 0.6  1 0.8 0.6  0.1 0.3 0.7  0.1 0.2 0.7  0 0.2 0.7  0 0.3 0.7  0.2 0.3 0.7  0.2 0.2 0.7  0.3 0.3 0.7  0.3 0.2 0.7  0.4 0.3 0.7  0.4 0.2 0.7  0.5 0.3 0.7  0.5 0.2 0.7  0.6 0.3 0.7  0.6 0.2 0.7  0.7 0.3 0.7  0.7 0.2 0.7  0.8 0.3 0.7  0.8 0.2 0.7  0.9 0.3 0.7  0.9 0.2 0.7  1 0.3 0.7  1 0.2 0.7  0.1 0.4 0.7  0 0.4 0.7  0.2 0.4 0.7  0.3 0.4 0.7  0.4 0.4 0.7  0.5 0.4 0.7  0.6 0.4 0.7  0.7 0.4 0.7  0.8 0.4 0.7  0.9 0.4 0.7  1 0.4 0.7  0.1 0.5 0.7  0 0.5 0.7  0.2 0.5 0.7  0.3 0.5 0.7  0.4 0.5 0.7  0.5 0.5 0.7  0.6 0.5 0.7  0.7 0.5 0.7  0.8 0.5 0.7  0.9 0.5 0.7  1 0.5 0.7  0.1 0.6 0.7  0 0.6 0.7  0.2 0.6 0.7  0.3 0.6 0.7  0.4 0.6 0.7  0.5 0.6 0.7  0.6 0.6 0.7  0.7 0.6 0.7  0.8 0.6 0.7  0.9 0.6 0.7  1 0.6 0.7  0.1 0.7 0.7  0 0.7 0.7  0.2 0.7 0.7  0.3 0.7 0.7  0.4 0.7 0.7  0.5 0.7 0.7  0.6 0.7 0.7  0.7 0.7 0.7  0.8 0.7 0.7  0.9 0.7 0.7  1 0.7 0.7  0.1 0.8 0.7  0 0.8 0.7  0.2 0.8 0.7  0.3 0.8 0.7  0.4 0.8 0.7  0.5 0.8 0.7  0.6 0.8 0.7  0.7 0.8 0.7  0.8 0.8 0.7  0.9 0.8 0.7  1 0.8 0.7  0.1 0.3 0.8  0.1 0.2 0.8  0 0.2 0.8  0 0.3 0.8  0.2 0.3 0.8  0.2 0.2 0.8  0.3 0.3 0.8  0.3 0.2 0.8  0.4 0.3 0.8  0.4 0.2 0.8  0.5 0.3 0.8  0.5 0.2 0.8  0.6 0.3 0.8  0.6 0.2 0.8  0.7 0.3 0.8  0.7 0.2 0.8  0.8 0.3 0.8  0.8 0.2 0.8  0.9 0.3 0.8  0.9 0.2 0.8  1 0.3 0.8  1 0.2 0.8  0.1 0.4 0.8  0 0.4 0.8  0.2 0.4 0.8  0.3 0.4 0.8  0.4 0.4 0.8  0.5 0.4 0.8  0.6 0.4 0.8  0.7 0.4 0.8  0.8 0.4 0.8  0.9 0.4 0.8  1 0.4 0.8  0.1 0.5 0.8  0 0.5 0.8  0.2 0.5 0.8  0.3 0.5 0.8  0.4 0.5 0.8  0.5 0.5 0.8  0.6 0.5 0.8  0.7 0.5 0.8  0.8 0.5 0.8  0.9 0.5 0.8  1 0.5 0.8  0.1 0.6 0.8  0 0.6 0.8  0.2 0.6 0.8  0.3 0.6 0.8  0.4 0.6 0.8  0.5 0.6 0.8  0.6 0.6 0.8  0.7 0.6 0.8  0.8 0.6 0.8  0.9 0.6 0.8  1 0.6 0.8  0.1 0.7 0.8  0 0.7 0.8  0.2 0.7 0.8  0.3 0.7 0.8  0.4 0.7 0.8  0.5 0.7 0.8  0.6 0.7 0.8  0.7 0.7 0.8  0.8 0.7 0.8  0.9 0.7 0.8  1 0.7 0.8  0.1 0.8 0.8  0 0.8 0.8  0.2 0.8 0.8  0.3 0.8 0.8  0.4 0.8 0.8  0.5 0.8 0.8  0.6 0.8 0.8  0.7 0.8 0.8  0.8 0.8 0.8  0.9 0.8 0.8  1 0.8 0.8  </DataArray>
</Points>
<Cells>
[...]
<PointData  Vectors="f_23"> 
<DataArray  type="Float64"  Name="f_23"  NumberOfComponents="3" format="ascii">-7.9037921099620295e-04 -2.4108714999590753e-04 -1.2028347789860075e-05  -6.8559575919112934e-04 -3.5661959999837067e-04 -1.2363184704018151e-05  -7.8781090712037340e-04 -2.5435241078922973e-04 -2.3415505224845065e-05  7.7068968820900488e-02 -3.1924020815402742e-04 -5.4621934275495357e-04  -6.9124986329043600e-04 -3.4085360873048384e-04 -2.0284177225757220e-05  -7.8590009162781826e-04 -2.3166619963863511e-04 -1.9534604434832463e-05  -8.8376309559069354e-04 -1.5951318627463562e-04 -2.1662119140127536e-05  7.7834346282594863e-02 -1.6706597762807065e-03 -1.4738038213937361e-03  -5.5058343913376028e-04 -5.4199601260295220e-04 1.1867344013072313e-05  -6.4914876128060127e-04 -4.1305530759949368e-04 -1.9346513528696160e-05  7.7996779899112717e-02 -4.6867082106128330e-05 -3.0098115699446113e-04  -5.5218341610978534e-04 -5.5724039117067351e-04 -9.2207436392531922e-07  -3.8444354658103617e-04 -6.9156711937510737e-04 6.3431491045670241e-05  -4.7841094806482610e-04 -5.4140422543291441e-04 3.3138744283508662e-06  7.8073990490975784e-02 1.5605685778455352e-04 -4.1416259314224879e-04  -3.7411908183851314e-04 -7.6578267218360154e-04 5.9847447406044042e-05  -1.9848315242930060e-04 -7.7430900549136522e-04 1.3192881020370419e-04  -2.7115064162280638e-04 -6.1937072899875790e-04 4.1203456709069379e-05  7.8337271923581128e-02 3.8195732720449282e-04 -6.4238887120188996e-04  -1.8496394753429420e-04 -9.3306917381596663e-04 1.6568863509835340e-04  4.2713256500451364e-06 -7.5120733653761347e-04 1.8272649381587315e-04  -3.1169618156182735e-05 -6.2055387864908896e-04 7.6285896810001903e-05  7.8826724908365342e-02 6.5759326544251187e-04 -9.5334586275896624e-04  -1.0053479910108245e-05 -1.0012052515475337e-03 2.8440640473194128e-04  2.4906990400362791e-04 -6.0342425922242746e-04 1.7350325508967907e-04  2.4985482334727467e-04 -5.2616327368089507e-04 8.3089506790475217e-05  7.9522523464856748e-02 9.0055766614620066e-04 -1.2637347889897859e-03  1.6452739304008001e-04 -9.0259239488614637e-04 3.4160027849068636e-04  5.7203518975618671e-04 -3.7272515111280220e-04 9.8786100331195269e-05  5.8228068109890819e-04 -3.5313731108503420e-04 5.1294286645584473e-05  8.0092063213659553e-02 1.0455521448142070e-03 -1.3593047825196012e-03  4.1272908843613691e-04 -6.3408671514173702e-04 2.6556832016047408e-04  9.6908075068963078e-04 -1.6168731692501207e-04 3.0255873792241021e-05  9.5653099727437390e-04 -1.6973504721144256e-04 1.1263298878176316e-05  7.9404548532790567e-02 1.0396903747329118e-03 -7.1044795374316388e-04  7.9262782778027744e-04 -3.2115509292329883e-04 1.0173064896460058e-04  1.3092135958458571e-03 -5.6130015381980188e-05 3.2532013906292031e-05  1.3021491301063301e-03 -5.9798212183388602e-05 1.8474729198312125e-05  7.6088886038007050e-02 7.4660888145972797e-04 6.3761897613219044e-04  1.1965659185114743e-03 -1.1534093300599601e-04 7.7315594031769969e-05  1.4820766603611168e-03 -3.2505600698331098e-05 4.3028760293665328e-05  1.4957700199615623e-03 -2.8152324395355200e-05 7.9472764223231350e-06  7.3080751188252746e-02 -1.3120458590434983e-04 -1.9042714061077530e-03  1.4566404715611356e-03 -7.6674735429358110e-05 6.0654486129948483e-05  -9.2967244724125161e-04 -1.5823407991902234e-04 -3.6594608245964170e-05  1.1295874303005117e-01 3.7028273054526972e-04 -4.1977934730650257e-04  -1.0193765376107285e-03 -9.8579793296925579e-05 -2.8084329312109954e-05  1.1412625988360911e-01 -1.6347770284053217e-03 -1.4620920770226512e-03  -7.7268078123609468e-04 -2.6793580368018649e-04 -5.0665045490761633e-05  1.1373259328688444e-01 3.6686648272609925e-04 -2.3598991557900132e-04  -5.6678025926938224e-04 -3.6114608980181048e-04 -5.5946008893848178e-05  1.1402077840572367e-01 4.1780566078287063e-04 -2.1324009882924878e-04  -3.0772587567791127e-04 -4.1758769313958785e-04 -5.2286492537903394e-05  1.1422070473095311e-01 5.6521968261220585e-04 -2.1176881504261850e-04  1.0625143154031993e-06 -4.2190693044104853e-04 -4.4485735296613661e-05  1.1448141131358373e-01 7.2575515879368135e-04 -1.8286725472686359e-04  3.5046709299730422e-04 -3.6432857367567936e-04 -3.8424671471206454e-05  1.1475354402766252e-01 7.7052117007010040e-04 -6.3674619308850202e-05  7.2000321524472166e-04 -2.5322384738888992e-04 -3.6736890355416627e-05  1.1480802127868202e-01 5.8759176303335519e-04 2.1611927150860463e-04  1.0818709999384588e-03 -1.2788120860049781e-04 -3.3771388316433071e-05  1.1414605438568802e-01 1.8635096407810584e-04 6.8954629761071469e-04  1.3857684504541214e-03 -5.0839182337600292e-05 -6.8605021402359151e-06  1.1212133045255174e-01 -2.9532357777600722e-04 8.6765112552249278e-04  1.5504797412386137e-03 -2.7224771117192773e-05 -1.9987047167117363e-05  1.0950676152861318e-01 -1.5462377919167402e-04 -2.5241977065189724e-03  -1.0235692149449937e-03 -9.9271610795373079e-05 -4.2320036102068032e-05  1.2437020987014299e-01 2.0648110427575728e-04 -3.2199723549989029e-04  -1.1054938386193451e-03 -5.9237267030393927e-05 -3.0081464662547777e-05  1.2533692624799805e-01 -1.0849431746025931e-03 -1.3672622890626600e-03  -8.6080600076239111e-04 -1.7325122353350762e-04 -6.3781585417465743e-05  1.2501965777647109e-01 3.6042153847008740e-04 -1.3873704301037765e-04  -6.2926133000504401e-04 -2.3875317711683584e-04 -8.1500968669357402e-05  1.2533208699859652e-01 3.4396441736577631e-04 -7.9945711925464647e-05  -3.3168003502418266e-04 -2.7901015735172491e-04 -9.3081809334171715e-05  1.2559484930906833e-01 3.6763026725836282e-04 -2.0296321961992338e-05  2.4595860424509308e-05 -2.8312010892166659e-04 -9.7462117111688480e-05  1.2583435514610938e-01 3.8998156010022186e-04 7.9455292576059236e-05  4.1987747776529757e-04 -2.4636732203822399e-04 -9.1976574650629763e-05  1.2593988600832590e-01 3.2512000955911536e-04 2.6176747679640638e-04  8.1637995962222738e-04 -1.7415091425094915e-04 -7.5537135026095250e-05  1.2570001654954399e-01 1.0127886924074338e-04 5.5211219185775711e-04  1.1708554762544900e-03 -8.7182003076674433e-05 -5.3770421176783169e-05  1.2490515459920724e-01 -2.4803877052090735e-04 8.5737161242826771e-04  1.4428937622590755e-03 -3.4329353908996723e-05 -2.0079053868717072e-05  1.2343985719026579e-01 -5.6360316782880140e-04 5.9032649996364423e-04  1.5854162539441627e-03 -2.0695148561925207e-05 -2.7339767728205678e-05  1.2113587071026512e-01 -1.4552823071567212e-04 -2.3768156765904525e-03  -1.0864359712238819e-03 -6.0186876296443736e-05 -4.2352918529869458e-05  1.1316932242314391e-01 1.4750964329584266e-04 -2.6414608077965292e-04  -1.1592137777836392e-03 -3.5652992779877591e-05 -3.0015627866211679e-05  1.1398085620070393e-01 -6.2575562138828130e-04 -1.2604168378570139e-03  -9.2555932176529611e-04 -1.1276032924573190e-04 -6.3489046025777890e-05  1.1373615502103672e-01 2.2148132724702116e-04 -8.9566101864518451e-05  -6.8049916631714874e-04 -1.6373839398509680e-04 -8.1825680387038454e-05  1.1401021503670350e-01 1.6203701408226397e-04 -2.1365686059062485e-05  -3.5766859562569330e-04 -1.9986064195195232e-04 -9.5114753707171108e-05  1.1426032639501402e-01 9.6134593032295117e-05 4.6615117289095794e-05  3.0822829266716064e-05 -2.1153021335914757e-04 -1.0053339043522111e-04  1.1446915894385176e-01 1.8662572728396577e-05 1.4852523336990258e-04  4.5894855933596615e-04 -1.9477825120926996e-04 -9.3453175490280512e-05  1.1449771747602175e-01 -9.7071442166097064e-05 3.1250789840023030e-04  8.8015469494354028e-04 -1.5107299357774778e-04 -7.3052591854764787e-05  1.1416247691764421e-01 -2.5321325099572569e-04 5.4306991705525994e-04  1.2391191359748595e-03 -8.5901456129713742e-05 -4.9455757903727021e-05  1.1337669755510239e-01 -3.7701156686034519e-04 7.1007750477620753e-04  1.4871091218091352e-03 -3.3553384302558616e-05 -2.0282352165957474e-05  1.1223250390330992e-01 -3.2608578730054197e-04 3.1986699552533500e-04  1.6118561698834127e-03 -2.7714830782029636e-05 -2.3941296789960456e-05  1.1058331928637091e-01 3.6202866207352756e-05 -2.0245866762851174e-03  -1.1309466168590448e-03 -3.4732390079554133e-05 -4.1674041116902500e-05  7.6485150487100001e-02 1.0121775216128092e-04 -2.4454861205831861e-04  -1.1916367395342668e-03 -1.8744611993282293e-05 -2.9892845264998926e-05  7.6399151298752174e-02 -4.5495152764852761e-04 -1.0909721906811802e-03  -9.8504067727960736e-04 -7.1741693922741523e-05 -5.7329095280133466e-05  7.6956474391906254e-02 4.1884842644346437e-05 -7.8022247504986293e-05  -7.4252470261858110e-04 -1.1809963538794547e-04 -6.9837811484522850e-05  7.7119542519974743e-02 -1.0223320928718927e-04 -1.7397436564640479e-05  -4.0883040212937532e-04 -1.6125716992889682e-04 -7.8584923795116634e-05  7.7247435094655467e-02 -2.4949900139978088e-04 3.3457056122712314e-05  -5.9756008494358967e-07 -1.8805038912592722e-04 -8.1372943962476849e-05  7.7350069524334958e-02 -4.0916300736543068e-04 1.2291657954238423e-04  4.5154972774823622e-04 -1.9189638460226970e-04 -7.2785139367771476e-05  7.7324574970681417e-02 -5.6782068119849932e-04 2.7005607108317029e-04  9.0090313613944433e-04 -1.7119001873055261e-04 -5.2353069346144310e-05  7.7056307102458144e-02 -6.8397114536326506e-04 4.5798726705561442e-04  1.2895484672044777e-03 -1.2575198010278876e-04 -3.2325019207861931e-05  7.6486128196235556e-02 -6.8313428642283267e-04 5.6184605265876674e-04  1.5332905657693583e-03 -6.5877288319426947e-05 -1.3022718475202806e-05  7.5421018855278188e-02 -5.2133554306794179e-04 2.3767115224251358e-04  1.6425490162136098e-03 -4.5874843217679940e-05 -1.6431508937585444e-05  7.4755232719689022e-02 1.7576605889929836e-04 -1.6288875973400432e-03  -1.1748814162106549e-03 -3.0356035720006416e-05 -2.6747954903368586e-05  -1.1948191423932183e-03 -1.8497841785872676e-05 -2.8033964813822843e-05  -1.2046839130154471e-03 -1.6199331513108186e-05 -2.1968465244161603e-05  -1.2141266685222825e-03 -2.0940983156890500e-05 -2.1997707829061463e-05  -1.0640843591711983e-03 -6.0895294915495676e-05 -4.6100795359370537e-05  -1.1055057050507412e-03 -4.5963005317374992e-05 -4.9139419824666708e-05  -8.5967953368828196e-04 -1.0039755878614067e-04 -6.1744603121929959e-05  -9.3741019469123726e-04 -8.7023305698855332e-05 -6.4775245044633079e-05  -5.6219888270711798e-04 -1.4281732757643001e-04 -6.9841123158202398e-05  -6.7520441964719741e-04 -1.3434385301561676e-04 -7.6429435870182310e-05  -1.8155204615250592e-04 -1.7414233303424990e-04 -7.2941119866955410e-05  -3.2626477954997469e-04 -1.7174243401739940e-04 -8.4609560295452276e-05  2.6064283354140517e-04 -1.8539043915569064e-04 -6.8939231106884496e-05  9.1307287157656376e-05 -1.8951046672324468e-04 -8.4739586664908049e-05  7.2266190538015722e-04 -1.7144353387320077e-04 -5.4739222790470180e-05  5.4377580545088690e-04 -1.8333909768825362e-04 -7.2569003797194143e-05  1.1479285418458576e-03 -1.2919149922182671e-04 -3.5161876292865742e-05  9.7897007119318266e-04 -1.5034668490010783e-04 -5.2303130722210994e-05  1.4941052147855959e-03 -7.5741555798263064e-05 -1.4661448318881849e-05  1.3504065407185294e-03 -9.8747391081394694e-05 -3.0363809707965672e-05  1.6462123722790570e-03 -5.2586269897657623e-05 -4.4172899375951435e-07  1.5254606206469500e-03 -6.2340805373013616e-05 -1.4772146417817219e-05  1.1271628144633668e-01 -2.6833115525312629e-04 -1.4091925438727561e-04  -7.0613811556356147e-04 -3.3731122560513236e-04 -5.0257667809128075e-05  -8.1204173486409698e-04 -2.1963080575090969e-04 -4.3770296578610320e-05  1.1367722411213174e-01 -1.6546891494708565e-03 -1.1674596220362361e-03  1.1357694039838469e-01 -5.5163036256479678e-05 -1.2684251008723737e-04  -5.3264413762449674e-04 -5.8266333015542934e-04 -5.3347408199042204e-05  1.1349604554844776e-01 1.5116899143153678e-04 -3.4500433940781131e-04  -2.9315679392950567e-04 -8.6609694377554264e-04 1.4322688710165077e-06  1.1353776426321142e-01 4.0158565181768569e-04 -7.1074804675393469e-04  -3.6620263340648806e-05 -1.1725227118479949e-03 1.4859368455629916e-04  1.1384528580070612e-01 7.8290137079186327e-04 -1.2381474085685720e-03  1.6334882219090388e-04 -1.4356717702854111e-03 3.9157822078232771e-04  1.1463655320289678e-01 1.2202089548284676e-03 -1.8168610365585801e-03  2.5387756521670082e-04 -1.5087673609358581e-03 6.4773884696013747e-04  1.1611221794423696e-01 1.3906861992320687e-03 -2.1328635902776046e-03  3.1735739250812788e-04 -1.2434962417818309e-03 7.1146945753969987e-04  1.1669717618149338e-01 1.3838645504725355e-03 -1.6936363367940426e-03  5.8956190273507208e-04 -7.1748198890126075e-04 4.0931693387169721e-04  1.1195670567299529e-01 1.3849483358833569e-03 2.8439335594535189e-04  9.8176680719190058e-04 -2.7791587671382626e-04 2.2265438555492951e-04  1.0618268537287329e-01 -5.6293526847120595e-05 -3.5340396351002177e-03  1.3149769795166291e-03 -1.9062264936343438e-04 2.3952889345436862e-04  1.7255004407827421e-01 5.1178788118483982e-04 -8.1544322556384452e-05  1.7323880801629568e-01 -1.6796430110893785e-03 -1.1822301340014604e-03  1.7321664527998162e-01 4.2162448419228127e-04 -1.0686255823963760e-04  1.7352814304229405e-01 5.2246798084970168e-04 -2.2966713339309640e-04  1.7362335396166401e-01 8.0439454319625159e-04 -3.5451377700634938e-04  1.7374955502919012e-01 1.1985932054027156e-03 -4.5409079483652763e-04  1.7402467418463397e-01 1.5098048023395876e-03 -4.1285306013170357e-04  1.7443332207809989e-01 1.3539380447343194e-03 -6.9035370065973178e-05  1.7431324267188339e-01 5.4054081352284604e-04 6.1294099195146755e-04  1.7178200069336474e-01 -4.1890800390263956e-04 8.0769205740478832e-04  1.6636181918953638e-01 3.1552014187494361e-04 -4.7888073993049163e-03  1.9142809378363415e-01 3.0591193914642991e-04 -3.2403794846078131e-05  1.9181853611076252e-01 -1.0954133835347373e-03 -1.1494862503633710e-03  1.9193405612776454e-01 4.5500404380384885e-04 -5.9929515726184768e-05  1.9227519942825638e-01 4.5195411189080773e-04 -1.3232477554922092e-04  1.9247262147591582e-01 5.4365681362810033e-04 -1.7626069730640586e-04  1.9263847340980067e-01 6.8795641175946418e-04 -1.8725508926500164e-04  1.9277341779494478e-01 7.5139793217732904e-04 -1.1050353064168681e-04  1.9272322867636957e-01 5.2447071611124471e-04 1.3195614954024599e-04  1.9208662772149360e-01 -1.0632865648829540e-04 5.2580056466156814e-04  1.9025876886494014e-01 -8.4973521021158274e-04 1.5247223057086293e-04  1.8578765400590358e-01 2.0414759972077083e-04 -4.5865464996093803e-03  1.7274840095460539e-01 2.1502420090822866e-04 -1.8848055353367702e-05  1.7296247837725864e-01 -5.9987258529871986e-04 -1.0978515122979427e-03  1.7316384864742249e-01 3.1078942085340438e-04 -3.2929502571976205e-05  1.7345642371111691e-01 2.5172622604287194e-04 -8.2158232013205233e-05  1.7365118077407576e-01 2.0550372880001873e-04 -9.5916711825593703e-05  1.7380103115399950e-01 1.7065012138924360e-04 -8.5675848981664804e-05  1.7384985275351400e-01 9.0478060604174169e-05 -3.4113028571651023e-05  1.7360579347674274e-01 -1.0149364281943027e-04 8.5173707279163655e-05  1.7283064133764517e-01 -3.9057968959522359e-04 2.6134788731643305e-04  1.7149714249015546e-01 -5.3743131723953098e-04 -3.1312312142815470e-04  1.6869725384683920e-01 4.3854005297066677e-04 -3.9660709934806583e-03  1.1291287072558176e-01 1.4106368280345015e-04 -1.2911869144076440e-05  1.1232244537380191e-01 -4.1776028452631639e-04 -9.8865585207242560e-04  1.1322415589477450e-01 9.3435516330580683e-05 -1.5037942238191029e-05  1.1338626304608000e-01 -4.9476255687562626e-05 -5.8648056450686598e-05  1.1346199832763373e-01 -2.0814353137706745e-04 -6.1812756713194367e-05  1.1349800855265914e-01 -3.6993593998805907e-04 -3.0755297104149333e-05  1.1346272228215862e-01 -5.4126202716235400e-04 4.4610807418553534e-05  1.1322100233344091e-01 -7.0664609343599756e-04 1.7506891258666377e-04  1.1260191209920331e-01 -7.7650308576607903e-04 2.8435421559607334e-04  1.1147147409810496e-01 -5.9381288838303455e-04 -2.9283235599517971e-04  1.1063378662282874e-01 5.4426368925280155e-04 -3.1233935986146877e-03  -1.2245226121515250e-03 -1.8247846550075414e-05 -2.1240074889280036e-05  -1.2442230462313630e-03 -1.9825459520331075e-05 -2.0173845822687072e-05  -1.1336517757900638e-03 -4.3392582789039616e-05 -4.8613420943790591e-05  -9.6330172464835322e-04 -7.9075206087889021e-05 -7.7440175324366140e-05  -7.0209714286187581e-04 -1.1895578247606460e-04 -1.0154576095783417e-04  -3.5296848138691281e-04 -1.4990638681530269e-04 -1.1997346792148419e-04  7.2019089975492839e-05 -1.6296987679119003e-04 -1.2830457165110789e-04  5.3783527440958389e-04 -1.5373765237703741e-04 -1.2109999452139299e-04  9.8193964387166674e-04 -1.2110044325021178e-04 -9.9434860245008606e-05  1.3600970497106952e-03 -7.6447968635086144e-05 -6.6797419504626354e-05  1.5249669336384556e-03 -4.8600012210049245e-05 -3.7150413104100822e-05  1.2395143858374429e-01 -2.5745698959228744e-04 8.4868282221015320e-06  -7.4992956862726646e-04 -3.0607672802384267e-04 -8.8521432595564583e-05  -8.6401198353617582e-04 -1.9090612884063390e-04 -6.6682047146541997e-05  1.2492270320286085e-01 -1.6605702816802816e-03 -9.5206722955153947e-04  1.2474592415689351e-01 -1.4114677813943494e-05 8.9934883967016091e-05  -5.4142821328918118e-04 -5.5414936110618747e-04 -1.3382397436053709e-04  1.2454687348784173e-01 1.8168317915870689e-04 -1.1468869849707906e-05  -2.2122536810893762e-04 -8.8777776573565064e-04 -1.2425671124809826e-04  1.2447446612096105e-01 4.3968567687625913e-04 -2.4848810513842070e-04  1.7155285927532762e-04 -1.3410454513966129e-03 1.1059645366089154e-05  1.2462876251728439e-01 9.4663394443952442e-04 -7.2585205202284776e-04  5.2945893881802203e-04 -1.9032365276287439e-03 3.6225028555071951e-04  1.2522402680224246e-01 1.8548285554675743e-03 -1.4504036288842733e-03  6.5161877083907721e-04 -2.4094817199467196e-03 9.6336929421707740e-04  1.2695549733400646e-01 2.7358151486992469e-03 -2.1170083448906938e-03  4.1307164191145589e-04 -2.4777103858676193e-03 1.5896361630213498e-03  1.2973752517925746e-01 1.7546340435242846e-03 -2.1918015940422505e-03  2.6389016438906559e-04 -1.7707086205748063e-03 1.6058333477940265e-03  1.2381960588657187e-01 1.7199300728588341e-03 -1.7600763173666989e-03  3.9273528362666508e-04 -7.7311574703946566e-04 6.7042111456574321e-04  1.0889760730947268e-01 2.0749134000308282e-03 -6.5335410805741978e-03  5.3169644964469562e-04 -5.5279452096259252e-04 1.1136227931784746e-03  1.9127103973451909e-01 5.0895495499209077e-04 -1.6345612308524278e-05  1.9193256742287609e-01 -1.6706542598103767e-03 -9.3474334731596801e-04  1.9191201207587311e-01 4.2699133764404298e-04 3.9947290151480142e-05  1.9221029154141098e-01 5.4740867920569731e-04 -4.0558648680817185e-05  1.9234340758030471e-01 9.1246124086411407e-04 -1.5417815332699738e-04  1.9251002173341111e-01 1.5613287590977292e-03 -2.7987146314189160e-04  1.9277674827137012e-01 2.4139195252772683e-03 -2.9880696967231351e-04  1.9323670521508998e-01 2.7609796931551906e-03 3.9606234890023020e-05  1.9339711463159936e-01 1.2655766197212459e-03 7.6848867842143893e-04  1.9000960228580679e-01 -1.3412845491898927e-03 9.5726083776632813e-04  1.7966945329525974e-01 1.2128901273898453e-03 -8.0715687731279691e-03  2.1264008545032040e-01 3.2599816195097642e-04 4.0490997733465481e-06  2.1297643959048790e-01 -1.0687889966107434e-03 -9.1194195294320166e-04  2.1311090217338163e-01 4.7418812038692429e-04 6.3566028742254759e-05  2.1345323669280722e-01 4.8804514975570929e-04 2.7296884346238699e-05  2.1368842430402599e-01 6.3527542123253706e-04 2.5027481229123104e-06  2.1390973335663827e-01 9.0587006038711601e-04 2.6821386129287633e-07  2.1412085542743722e-01 1.1613969337989170e-03 4.2158196229438377e-05  2.1417308208423000e-01 1.0023602938184267e-03 1.3918161925410743e-04  2.1332691430412751e-01 -8.1337729545931354e-05 2.1585948200338631e-04  2.1036019842002704e-01 -1.6483233925609943e-03 -1.2844185501557697e-04  2.0273889847755380e-01 6.2392834670191104e-04 -7.3216011491876662e-03  1.9147508518143655e-01 2.3825398708337027e-04 1.2661098807488073e-05  1.9163282839807236e-01 -5.5480764903616665e-04 -8.7343860231991804e-04  1.9184583629857160e-01 3.3584064476378545e-04 7.8361668919920