<?xml version="1.0"?>
<VTKFile type="UnstructuredGrid"  version="0.1"  >
<UnstructuredGrid>
<Piece  NumberOfPoints="539" NumberOfCells="2160">
<Points>
<DataArray  type="Float64"  NumberOfComponents="3"  format="ascii">0 0.2 0.2  0.1 0.2 0.2  0.1 0.3 0.2  0.1 0.3 0.3  0.1 0.2 0.3  0 0.2 0.3  0 0.3 0.2  0 0.3 0.3  0.2 0.2 0.2  0.2 0.3 0.2  0.2 0.3 0.3  0.2 0.2 0.3  0.3 0.2 0.2  0.3 0.3 0.2  0.3 0.3 0.3  0.3 0.2 0.3  0.4 0.2 0.2  0.4 0.3 0.2  0.4 0.3 0.3  0.4 0.2 0.3  0.5 0.2 0.2  0.5 0.3 0.2  0.5 0.3 0.3  0.5 0.2 0.3  0.6 0.2 0.2  0.6 0.3 0.2  0.6 0.3 0.3  0.6 0.2 0.3  0.7 0.2 0.2  0.7 0.3 0.2  0.7 0.3 0.3  0.7 0.2 0.3  0.8 0.2 0.2  0.8 0.3 0.2  0.8 0.3 0.3  0.8 0.2 0.3  0.9 0.2 0.2  0.9 0.3 0.2  0.9 0.3 0.3  0.9 0.2 0.3  1 0.2 0.2  1 0.3 0.2  1 0.3 0.3  1 0.2 0.3  0.1 0.4 0.2  0.1 0.4 0.3  0 0.4 0.2  0 0.4 0.3  0.2 0.4 0.2  0.2 0.4 0.3  0.3 0.4 0.2  0.3 0.4 0.3  0.4 0.4 0.2  0.4 0.4 0.3  0.5 0.4 0.2  0.5 0.4 0.3  0.6 0.4 0.2  0.6 0.4 0.3  0.7 0.4 0.2  0.7 0.4 0.3  0.8 0.4 0.2  0.8 0.4 0.3  0.9 0.4 0.2  0.9 0.4 0.3  1 0.4 0.2  1 0.4 0.3  0.1 0.5 0.2  0.1 0.5 0.3  0 0.5 0.2  0 0.5 0.3  0.2 0.5 0.2  0.2 0.5 0.3  0.3 0.5 0.2  0.3 0.5 0.3  0.4 0.5 0.2  0.4 0.5 0.3  0.5 0.5 0.2  0.5 0.5 0.3  0.6 0.5 0.2  0.6 0.5 0.3  0.7 0.5 0.2  0.7 0.5 0.3  0.8 0.5 0.2  0.8 0.5 0.3  0.9 0.5 0.2  0.9 0.5 0.3  1 0.5 0.2  1 0.5 0.3  0.1 0.6 0.2  0.1 0.6 0.3  0 0.6 0.2  0 0.6 0.3  0.2 0.6 0.2  0.2 0.6 0.3  0.3 0.6 0.2  0.3 0.6 0.3  0.4 0.6 0.2  0.4 0.6 0.3  0.5 0.6 0.2  0.5 0.6 0.3  0.6 0.6 0.2  0.6 0.6 0.3  0.7 0.6 0.2  0.7 0.6 0.3  0.8 0.6 0.2  0.8 0.6 0.3  0.9 0.6 0.2  0.9 0.6 0.3  1 0.6 0.2  1 0.6 0.3  0.1 0.7 0.2  0.1 0.7 0.3  0 0.7 0.2  0 0.7 0.3  0.2 0.7 0.2  0.2 0.7 0.3  0.3 0.7 0.2  0.3 0.7 0.3  0.4 0.7 0.2  0.4 0.7 0.3  0.5 0.7 0.2  0.5 0.7 0.3  0.6 0.7 0.2  0.6 0.7 0.3  0.7 0.7 0.2  0.7 0.7 0.3  0.8 0.7 0.2  0.8 0.7 0.3  0.9 0.7 0.2  0.9 0.7 0.3  1 0.7 0.2  1 0.7 0.3  0.1 0.8 0.2  0.1 0.8 0.3  0 0.8 0.2  0 0.8 0.3  0.2 0.8 0.2  0.2 0.8 0.3  0.3 0.8 0.2  0.3 0.8 0.3  0.4 0.8 0.2  0.4 0.8 0.3  0.5 0.8 0.2  0.5 0.8 0.3  0.6 0.8 0.2  0.6 0.8 0.3  0.7 0.8 0.2  0.7 0.8 0.3  0.8 0.8 0.2  0.8 0.8 0.3  0.9 0.8 0.2  0.9 0.8 0.3  1 0.8 0.2  1 0.8 0.3  0.1 0.3 0.4  0.1 0.2 0.4  0 0.2 0.4  0 0.3 0.4  0.2 0.3 0.4  0.2 0.2 0.4  0.3 0.3 0.4  0.3 0.2 0.4  0.4 0.3 0.4  0.4 0.2 0.4  0.5 0.3 0.4  0.5 0.2 0.4  0.6 0.3 0.4  0.6 0.2 0.4  0.7 0.3 0.4  0.7 0.2 0.4  0.8 0.3 0.4  0.8 0.2 0.4  0.9 0.3 0.4  0.9 0.2 0.4  1 0.3 0.4  1 0.2 0.4  0.1 0.4 0.4  0 0.4 0.4  0.2 0.4 0.4  0.3 0.4 0.4  0.4 0.4 0.4  0.5 0.4 0.4  0.6 0.4 0.4  0.7 0.4 0.4  0.8 0.4 0.4  0.9 0.4 0.4  1 0.4 0.4  0.1 0.5 0.4  0 0.5 0.4  0.2 0.5 0.4  0.3 0.5 0.4  0.4 0.5 0.4  0.5 0.5 0.4  0.6 0.5 0.4  0.7 0.5 0.4  0.8 0.5 0.4  0.9 0.5 0.4  1 0.5 0.4  0.1 0.6 0.4  0 0.6 0.4  0.2 0.6 0.4  0.3 0.6 0.4  0.4 0.6 0.4  0.5 0.6 0.4  0.6 0.6 0.4  0.7 0.6 0.4  0.8 0.6 0.4  0.9 0.6 0.4  1 0.6 0.4  0.1 0.7 0.4  0 0.7 0.4  0.2 0.7 0.4  0.3 0.7 0.4  0.4 0.7 0.4  0.5 0.7 0.4  0.6 0.7 0.4  0.7 0.7 0.4  0.8 0.7 0.4  0.9 0.7 0.4  1 0.7 0.4  0.1 0.8 0.4  0 0.8 0.4  0.2 0.8 0.4  0.3 0.8 0.4  0.4 0.8 0.4  0.5 0.8 0.4  0.6 0.8 0.4  0.7 0.8 0.4  0.8 0.8 0.4  0.9 0.8 0.4  1 0.8 0.4  0.1 0.3 0.5  0.1 0.2 0.5  0 0.2 0.5  0 0.3 0.5  0.2 0.3 0.5  0.2 0.2 0.5  0.3 0.3 0.5  0.3 0.2 0.5  0.4 0.3 0.5  0.4 0.2 0.5  0.5 0.3 0.5  0.5 0.2 0.5  0.6 0.3 0.5  0.6 0.2 0.5  0.7 0.3 0.5  0.7 0.2 0.5  0.8 0.3 0.5  0.8 0.2 0.5  0.9 0.3 0.5  0.9 0.2 0.5  1 0.3 0.5  1 0.2 0.5  0.1 0.4 0.5  0 0.4 0.5  0.2 0.4 0.5  0.3 0.4 0.5  0.4 0.4 0.5  0.5 0.4 0.5  0.6 0.4 0.5  0.7 0.4 0.5  0.8 0.4 0.5  0.9 0.4 0.5  1 0.4 0.5  0.1 0.5 0.5  0 0.5 0.5  0.2 0.5 0.5  0.3 0.5 0.5  0.4 0.5 0.5  0.5 0.5 0.5  0.6 0.5 0.5  0.7 0.5 0.5  0.8 0.5 0.5  0.9 0.5 0.5  1 0.5 0.5  0.1 0.6 0.5  0 0.6 0.5  0.2 0.6 0.5  0.3 0.6 0.5  0.4 0.6 0.5  0.5 0.6 0.5  0.6 0.6 0.5  0.7 0.6 0.5  0.8 0.6 0.5  0.9 0.6 0.5  1 0.6 0.5  0.1 0.7 0.5  0 0.7 0.5  0.2 0.7 0.5  0.3 0.7 0.5  0.4 0.7 0.5  0.5 0.7 0.5  0.6 0.7 0.5  0.7 0.7 0.5  0.8 0.7 0.5  0.9 0.7 0.5  1 0.7 0.5  0.1 0.8 0.5  0 0.8 0.5  0.2 0.8 0.5  0.3 0.8 0.5  0.4 0.8 0.5  0.5 0.8 0.5  0.6 0.8 0.5  0.7 0.8 0.5  0.8 0.8 0.5  0.9 0.8 0.5  1 0.8 0.5  0.1 0.3 0.6  0.1 0.2 0.6  0 0.2 0.6  0 0.3 0.6  0.2 0.3 0.6  0.2 0.2 0.6  0.3 0.3 0.6  0.3 0.2 0.6  0.4 0.3 0.6  0.4 0.2 0.6  0.5 0.3 0.6  0.5 0.2 0.6  0.6 0.3 0.6  0.6 0.2 0.6  0.7 0.3 0.6  0.7 0.2 0.6  0.8 0.3 0.6  0.8 0.2 0.6  0.9 0.3 0.6  0.9 0.2 0.6  1 0.3 0.6  1 0.2 0.6  0.1 0.4 0.6  0 0.4 0.6  0.2 0.4 0.6  0.3 0.4 0.6  0.4 0.4 0.6  0.5 0.4 0.6  0.6 0.4 0.6  0.7 0.4 0.6  0.8 0.4 0.6  0.9 0.4 0.6  1 0.4 0.6  0.1 0.5 0.6  0 0.5 0.6  0.2 0.5 0.6  0.3 0.5 0.6  0.4 0.5 0.6  0.5 0.5 0.6  0.6 0.5 0.6  0.7 0.5 0.6  0.8 0.5 0.6  0.9 0.5 0.6  1 0.5 0.6  0.1 0.6 0.6  0 0.6 0.6  0.2 0.6 0.6  0.3 0.6 0.6  0.4 0.6 0.6  0.5 0.6 0.6  0.6 0.6 0.6  0.7 0.6 0.6  0.8 0.6 0.6  0.9 0.6 0.6  1 0.6 0.6  0.1 0.7 0.6  0 0.7 0.6  0.2 0.7 0.6  0.3 0.7 0.6  0.4 0.7 0.6  0.5 0.7 0.6  0.6 0.7 0.6  0.7 0.7 0.6  0.8 0.7 0.6  0.9 0.7 0.6  1 0.7 0.6  0.1 0.8 0.6  0 0.8 0.6  0.2 0.8 0.6  0.3 0.8 0.6  0.4 0.8 0.6  0.5 0.8 0.6  0.6 0.8 0.6  0.7 0.8 0.6  0.8 0.8 0.6  0.9 0.8 0.6  1 0.8 0.6  0.1 0.3 0.7  0.1 0.2 0.7  0 0.2 0.7  0 0.3 0.7  0.2 0.3 0.7  0.2 0.2 0.7  0.3 0.3 0.7  0.3 0.2 0.7  0.4 0.3 0.7  0.4 0.2 0.7  0.5 0.3 0.7  0.5 0.2 0.7  0.6 0.3 0.7  0.6 0.2 0.7  0.7 0.3 0.7  0.7 0.2 0.7  0.8 0.3 0.7  0.8 0.2 0.7  0.9 0.3 0.7  0.9 0.2 0.7  1 0.3 0.7  1 0.2 0.7  0.1 0.4 0.7  0 0.4 0.7  0.2 0.4 0.7  0.3 0.4 0.7  0.4 0.4 0.7  0.5 0.4 0.7  0.6 0.4 0.7  0.7 0.4 0.7  0.8 0.4 0.7  0.9 0.4 0.7  1 0.4 0.7  0.1 0.5 0.7  0 0.5 0.7  0.2 0.5 0.7  0.3 0.5 0.7  0.4 0.5 0.7  0.5 0.5 0.7  0.6 0.5 0.7  0.7 0.5 0.7  0.8 0.5 0.7  0.9 0.5 0.7  1 0.5 0.7  0.1 0.6 0.7  0 0.6 0.7  0.2 0.6 0.7  0.3 0.6 0.7  0.4 0.6 0.7  0.5 0.6 0.7  0.6 0.6 0.7  0.7 0.6 0.7  0.8 0.6 0.7  0.9 0.6 0.7  1 0.6 0.7  0.1 0.7 0.7  0 0.7 0.7  0.2 0.7 0.7  0.3 0.7 0.7  0.4 0.7 0.7  0.5 0.7 0.7  0.6 0.7 0.7  0.7 0.7 0.7  0.8 0.7 0.7  0.9 0.7 0.7  1 0.7 0.7  0.1 0.8 0.7  0 0.8 0.7  0.2 0.8 0.7  0.3 0.8 0.7  0.4 0.8 0.7  0.5 0.8 0.7  0.6 0.8 0.7  0.7 0.8 0.7  0.8 0.8 0.7  0.9 0.8 0.7  1 0.8 0.7  0.1 0.3 0.8  0.1 0.2 0.8  0 0.2 0.8  0 0.3 0.8  0.2 0.3 0.8  0.2 0.2 0.8  0.3 0.3 0.8  0.3 0.2 0.8  0.4 0.3 0.8  0.4 0.2 0.8  0.5 0.3 0.8  0.5 0.2 0.8  0.6 0.3 0.8  0.6 0.2 0.8  0.7 0.3 0.8  0.7 0.2 0.8  0.8 0.3 0.8  0.8 0.2 0.8  0.9 0.3 0.8  0.9 0.2 0.8  1 0.3 0.8  1 0.2 0.8  0.1 0.4 0.8  0 0.4 0.8  0.2 0.4 0.8  0.3 0.4 0.8  0.4 0.4 0.8  0.5 0.4 0.8  0.6 0.4 0.8  0.7 0.4 0.8  0.8 0.4 0.8  0.9 0.4 0.8  1 0.4 0.8  0.1 0.5 0.8  0 0.5 0.8  0.2 0.5 0.8  0.3 0.5 0.8  0.4 0.5 0.8  0.5 0.5 0.8  0.6 0.5 0.8  0.7 0.5 0.8  0.8 0.5 0.8  0.9 0.5 0.8  1 0.5 0.8  0.1 0.6 0.8  0 0.6 0.8  0.2 0.6 0.8  0.3 0.6 0.8  0.4 0.6 0.8  0.5 0.6 0.8  0.6 0.6 0.8  0.7 0.6 0.8  0.8 0.6 0.8  0.9 0.6 0.8  1 0.6 0.8  0.1 0.7 0.8  0 0.7 0.8  0.2 0.7 0.8  0.3 0.7 0.8  0.4 0.7 0.8  0.5 0.7 0.8  0.6 0.7 0.8  0.7 0.7 0.8  0.8 0.7 0.8  0.9 0.7 0.8  1 0.7 0.8  0.1 0.8 0.8  0 0.8 0.8  0.2 0.8 0.8  0.3 0.8 0.8  0.4 0.8 0.8  0.5 0.8 0.8  0.6 0.8 0.8  0.7 0.8 0.8  0.8 0.8 0.8  0.9 0.8 0.8  1 0.8 0.8  </DataArray>
</Points>
<Cells>
[...]
<PointData  Vectors="f_23"> 
<DataArray  type="Float64"  Name="f_23"  NumberOfComponents="3" format="ascii">6.7510107691738392e-04 1.2484199478327918e-04 -8.6838970027523303e-06  6.1785831472555648e-04 1.7554956653434604e-04 -1.5872286007636096e-05  6.7147199815556491e-04 1.2845775029482077e-04 -8.6412100580954236e-06  7.5907331623698587e-02 2.2336807610527233e-04 4.7342058908005839e-04  6.1513450614684843e-04 1.6756770234369956e-04 -1.3545346783185774e-05  6.6236326973693658e-04 1.1617634528144655e-04 -4.6652867115536112e-06  7.2494069225716672e-04 8.7762065211415048e-05 -6.0513979211421116e-06  7.5177622292767282e-02 6.9523788923308292e-04 1.1483150217577189e-03  5.2723145753626405e-04 2.6638577639235330e-04 -3.2597118213814137e-05  5.8331675448480228e-04 2.0640446752485730e-04 -1.8307673279599711e-05  7.5340832548765516e-02 4.9234948433640472e-05 2.3803139104630640e-04  5.3242166857512630e-04 2.7029403345055615e-04 -3.1462666359519705e-05  4.0327611729170119e-04 3.4095580452599193e-04 -5.6690475646809958e-05  4.6133320240185322e-04 2.6946824940609910e-04 -3.0615540575942005e-05  7.5280130489445096e-02 -5.7155277745335219e-05 3.0323927973777116e-04  4.1307561861096952e-04 3.7110531794154656e-04 -6.1010246857576244e-05  2.4618737762070991e-04 3.8650895894562395e-04 -7.8646797223988287e-05  3.0100461715152325e-04 3.1114572436419035e-04 -4.2100800615674302e-05  7.5084074917408303e-02 -1.7457281862165436e-04 4.5908154501322153e-04  2.6968516569764981e-04 4.5476591172430769e-04 -9.6635891382359566e-05  4.0035994751344968e-05 3.8405747341093896e-04 -7.7724615642283887e-05  8.7582430487912166e-05 3.1857534424478901e-04 -3.9241274916115669e-05  7.4749211177456448e-02 -3.2515442641112085e-04 6.6713258926621142e-04  9.4881979141541746e-05 4.9536415890771152e-04 -1.1689952920171468e-04  -2.4198645939611425e-04 3.2323027909253205e-04 -3.6164196433994750e-05  -2.0031789479877564e-04 2.8180860116037634e-04 -9.7885821823817337e-06  7.4319806277200848e-02 -4.6571281448429041e-04 8.5261645861608418e-04  -1.4196136377944758e-04 4.5963285539653227e-04 -8.7630598064747736e-05  -5.9976815118922226e-04 2.2023338614243467e-04 2.3328713146649282e-05  -5.6324313708248518e-04 2.0619122482279218e-04 3.2124172917565418e-05  7.4041940132018660e-02 -5.4912818819480909e-04 8.2519099205826589e-04  -4.7314259357079670e-04 3.4026912129187810e-04 -5.0946462803677780e-06  -9.3162245829647662e-04 1.1209478104286352e-04 4.0552923150498184e-05  -9.2038683302936091e-04 1.1793888739083522e-04 4.1790352168680602e-05  7.4620081388893325e-02 -5.4435340765531394e-04 2.3610118215454566e-04  -8.4768256109434513e-04 1.7965251193964560e-04 3.6417091042132147e-05  -1.1038671398160124e-03 3.8210611552618653e-05 5.2022041513907789e-06  -1.1239084077304055e-03 4.4174357322017902e-05 2.4461321932615706e-05  7.6758602421452632e-02 -3.5933416086136335e-04 -5.7835279397226312e-04  -1.0943258160213359e-03 7.5007884215237049e-05 9.2187707106872175e-07  -1.1886462863244002e-03 5.3544635889537167e-05 3.7192685403350557e-05  -1.1929429347758294e-03 3.8353709418904796e-05 3.9480339734437422e-05  7.8920620939163855e-02 2.3679895650092789e-04 1.1997998556144442e-03  -1.1941044242978274e-03 6.0370651440619614e-05 2.3652397772512658e-05  7.4154709085794970e-04 8.2986270872791084e-05 -2.7257241179565460e-06  1.1517766084624544e-01 -1.2966122827343625e-04 4.3094681649195524e-04  7.9588115589966407e-04 5.7159510654824049e-05 -2.3655799294018348e-06  1.1426574588921545e-01 6.9400528955009541e-04 1.2459198871149189e-03  6.4091015020129299e-04 1.3586710714976735e-04 -3.5514280956766675e-06  1.1467440506736541e-01 -1.6055311485990573e-04 2.0556520210970162e-04  5.0532218137303985e-04 1.7969194821906807e-04 -4.1616118336136255e-06  1.1451496933783009e-01 -2.0281343321365403e-04 2.1802942002017891e-04  3.2279249928881745e-04 2.0726248862610640e-04 -9.1214711760985159e-07  1.1434595834350220e-01 -2.8536356677278665e-04 2.7210793532254392e-04  7.9157296889468279e-05 2.1074549062714994e-04 1.3475352656980089e-05  1.1412069867688482e-01 -3.8380068025916601e-04 3.1050083308474237e-04  -2.3933580809496372e-04 1.8591677151263083e-04 4.2489065187762888e-05  1.1392659800540388e-01 -4.3133516397858736e-04 2.5885974389899569e-04  -6.2243087644245864e-04 1.3835505718814606e-04 6.9812880608554150e-05  1.1399955447437844e-01 -3.5084296082086940e-04 -6.8565287504376033e-06  -9.8430610387516292e-04 8.3974800837720729e-05 6.1319352025200602e-05  1.1474507162605392e-01 -1.2517299977301448e-04 -5.6605930443700083e-04  -1.1839991785524665e-03 3.6443957460089663e-05 3.4649804063520301e-05  1.1645398312802371e-01 1.7037837250637332e-04 -8.3050326953223975e-04  -1.2481079339110724e-03 2.7972762662658564e-05 5.4397434504600073e-05  1.1855167334548800e-01 5.7881901171111784e-05 1.2483878141466909e-03  7.8676587725125182e-04 4.9949221371516528e-05 1.3837088687949368e-06  1.2534824755116078e-01 -6.7002075928485714e-05 3.7144850724721198e-04  8.4161515642024035e-04 3.2794014749520254e-05 3.9949023429980281e-08  1.2452342189173816e-01 4.9469557698417980e-04 1.2029364572562061e-03  6.7956353763534336e-04 8.3832645571535973e-05 3.8856301818834128e-06  1.2490038611318381e-01 -1.6777455778234569e-04 1.5180758896995414e-04  5.3279379855690348e-04 1.1155256270850531e-04 9.0352107209062010e-06  1.2472459870046611e-01 -1.7700000074726802e-04 1.5294062931977545e-04  3.3232928518665529e-04 1.2667455048022614e-04 1.9561571654173269e-05  1.2452820496799799e-01 -1.9950475110168441e-04 1.7762255083625920e-04  6.6951628935722231e-05 1.2324383329253086e-04 3.9531455833942984e-05  1.2432065197537702e-01 -2.2293585311727805e-04 1.7222310349658548e-04  -2.7014421863445667e-04 1.0050153920340741e-04 6.8151788428215935e-05  1.2422777426925849e-01 -1.9952767745551260e-04 7.3504256950261069e-05  -6.6148972633409239e-04 6.7571262227271046e-05 8.8734188334714328e-05  1.2448596759087668e-01 -7.4924356319546178e-05 -2.1232016338689199e-04  -1.0211776317988637e-03 3.9991940319532204e-05 7.1770296681027184e-05  1.2534961363414393e-01 1.4916767394953473e-04 -6.8059811258229042e-04  -1.2193504542262301e-03 1.7657169462265866e-05 4.0050747844072297e-05  1.2681691436253403e-01 3.4414066653359562e-04 -6.9126471978626404e-04  -1.2831305434796525e-03 1.7556975388622467e-05 5.9000149504570905e-05  1.2872805775356838e-01 7.5838125036167226e-05 1.0904327040840171e-03  8.1575518238749328e-04 2.7060550813885092e-05 3.7998402440146099e-06  1.1502786748037964e-01 -6.3964922859834422e-05 3.1938767260539230e-04  8.6832970830204976e-04 1.1796150654195276e-05 2.5712353524363164e-06  1.1429509538974179e-01 2.8513035223488549e-04 1.1163250469540815e-03  7.0699174932438522e-04 4.9089087623750192e-05 6.3894563418347792e-06  1.1463827240238050e-01 -1.2426634765109402e-04 1.2696032936883222e-04  5.5321191170469108e-04 6.9309197112984568e-05 1.1970940936592297e-05  1.1448693049323778e-01 -1.0154864666784441e-04 1.2355455579883163e-04  3.3913827287063657e-04 8.0845587720821516e-05 2.3722345870217182e-05  1.1430230985036181e-01 -7.5648118176045153e-05 1.4065866766594152e-04  5.7284647182773209e-05 7.8042584856581428e-05 4.3507463225207184e-05  1.1411650722253242e-01 -4.4038909275748981e-05 1.2882570678086617e-04  -2.9209138693802483e-04 6.0497454098648969e-05 6.8402195506286019e-05  1.1407145071884378e-01 1.3675431176460230e-05 3.4595798925934134e-05  -6.8486357583716806e-04 3.6935228541737169e-05 8.4104727750520348e-05  1.1438157977755183e-01 1.1343975153518042e-04 -2.1333132029217658e-04  -1.0371454555747808e-03 2.2505618768621135e-05 6.6283396398527950e-05  1.1520928390253747e-01 2.3166851673885389e-04 -5.6422742584578999e-04  -1.2339313229469079e-03 6.4488068445648590e-06 3.7180052137122724e-05  1.1642795908541341e-01 2.3901514312963407e-04 -4.5257826876515258e-04  -1.2997621164380008e-03 1.6317712632356449e-05 5.2008625676046069e-05  1.1788720044904019e-01 1.8284784987298291e-05 9.9807264909815654e-04  8.3916892739970212e-04 9.4491354702076434e-06 5.0124642779635633e-06  7.6644763316989897e-02 -5.8382348835272393e-05 2.5435328131675073e-04  8.8465954362518695e-04 2.1145223784051959e-06 5.4444800967305692e-06  7.6634553803670374e-02 3.4145991579677230e-04 8.9921939705470513e-04  7.3687575575807473e-04 2.6199941086676463e-05 5.2751992434453350e-06  7.6327317725366634e-02 -3.9580570639722992e-05 1.0385377024728900e-04  5.8420075751520117e-04 4.7367658950094979e-05 5.9131156647607333e-06  7.6242011835058784e-02 4.4206944813331233e-05 9.4748067119443394e-05  3.6454448004876610e-04 6.4866574793701661e-05 1.3432216430921831e-05  7.6139220366846797e-02 1.2150949768796422e-04 1.0533750759061267e-04  7.3163590105134642e-05 7.1561570919077803e-05 2.8803943207193883e-05  7.6024424473158742e-02 2.0355724482188246e-04 8.7971483485090019e-05  -2.8627892327999114e-04 6.5748735015631321e-05 4.8188369911988309e-05  7.5998943096189292e-02 2.8887129497643022e-04 3.6245008374660152e-06  -6.8601006558787066e-04 5.2208812820175532e-05 6.0615817773470721e-05  7.6212418740845708e-02 3.6204930727693906e-04 -1.8436955931611841e-04  -1.0436065322797629e-03 3.9583438662584342e-05 4.9304669074825499e-05  7.6791193199820307e-02 3.9356668665194747e-04 -4.0472959863791809e-04  -1.2420077238788653e-03 2.4033012182715582e-05 2.8040754810377568e-05  7.7760152268566904e-02 3.6491664177955356e-04 -2.6856311099465128e-04  -1.3077853542299851e-03 2.6197085425464710e-05 3.4999330786329529e-05  7.8207227542988547e-02 -8.5832145988605601e-06 9.4978521963725855e-04  8.7160774136320622e-04 4.3343248863626783e-06 5.8589451238755316e-06  8.8331078685979520e-04 4.8091810975010047e-06 3.3925398376848157e-06  9.0564650970530777e-04 -2.8250949164509439e-06 5.4032163420373131e-06  9.0794101129274885e-04 -1.5418875828049499e-06 3.7562770128249398e-06  7.8886253411586079e-04 2.1232093367095589e-05 4.3726447647099860e-06  8.2097620551445578e-04 1.3908245915015207e-05 3.7355211081517942e-06  6.5861216410254551e-04 4.0425610242987280e-05 5.9901633176119572e-06  7.1014078453652369e-04 3.5635676353596095e-05 2.7037730793002424e-06  4.6813113719930980e-04 5.9460885338603038e-05 6.2963123310047588e-06  5.4475162932728820e-04 5.7296833754279479e-05 5.7551784866201082e-06  2.0610910486178443e-04 7.0741744352482991e-05 1.1435112056767014e-05  3.1332068375925127e-04 7.1292320151784919e-05 1.6856395472777765e-05  -1.3059966133439476e-04 7.0774583779317147e-05 2.2303614726789484e-05  9.3555577886594851e-06 7.3098309311510633e-05 3.5784762441114314e-05  -5.2909745330719795e-04 6.0996131033116530e-05 3.5803574728977045e-05  -3.6508138988450615e-04 6.4406629346767401e-05 5.6536213552641833e-05  -9.3088415588163766e-04 4.2704314164007915e-05 4.3041522893174218e-05  -7.7624469545334329e-04 5.2043569177192543e-05 6.4841672732793447e-05  -1.2069430885591876e-03 2.8346143650208000e-05 2.8819219532145392e-05  -1.1062320662841162e-03 3.5526974178888211e-05 4.7313321250212290e-05  -1.3001950705248447e-03 3.0431596415604760e-05 1.7483295517595978e-05  -1.2430314551727074e-03 3.3032597261302296e-05 3.2602329546688600e-05  1.1528215103217107e-01 1.8063481257725797e-04 2.2278953680461273e-04  6.0806461629477797e-04 1.6681434133249720e-04 -2.2978899554435354e-06  6.5907547486814813e-04 1.1227466921255943e-04 4.0571081354301141e-06  1.1451305909214331e-01 6.9625991088881724e-04 1.0344638254011394e-03  1.1482197165555541e-01 4.7417499312396046e-05 1.4847639448237909e-04  5.1648998443002791e-04 2.8316773496530267e-04 -1.3701613923397213e-05  1.1482037480506940e-01 -6.3432116484152658e-05 2.9877869138722674e-04  3.8560185955599692e-04 4.1565904790406838e-04 -3.9323875656892797e-05  1.1474297758733221e-01 -1.9792566577865240e-04 5.4995441528039456e-04  2.3226105517308785e-04 5.6048276147390884e-04 -8.2430294717977896e-05  1.1450180296047482e-01 -4.0709552152187517e-04 8.9520810048961997e-04  6.4713193525126210e-05 6.9134387691410467e-04 -1.3192553054801955e-04  1.1400698266093860e-01 -6.6667360861915107e-04 1.2442841399462386e-03  -1.3321576344553379e-04 7.3982247309235664e-04 -1.3896669601528325e-04  1.1324540110704995e-01 -8.0139522196570796e-04 1.2888396836362628e-03  -4.1440865527166002e-04 6.2459953462350160e-04 -3.4441064073035639e-05  1.1324550136619685e-01 -8.1711897433539679e-04 5.4823165434464752e-04  -7.7473957678401983e-04 3.5723852546720985e-04 7.7629204144173908e-05  1.1629267074570668e-01 -7.3380615091971438e-04 -9.4490205720223347e-04  -1.0715507077098778e-03 1.4715801376314025e-04 -2.6450246269119117e-05  1.1943789930321787e-01 1.6891898881841292e-04 2.0674573732570910e-03  -1.2275958417750047e-03 1.0576589134866275e-04 -1.4066878200072346e-05  1.7614793242942858e-01 -1.9752408125306293e-04 2.1300909294359906e-04  1.7571317490450886e-01 7.3572101849485392e-04 1.1498636038488707e-03  1.7574938338360943e-01 -1.8836934081327636e-04 1.5188959225845416e-04  1.7553772130400622e-01 -2.5183234484808066e-04 2.7575552050423225e-04  1.7541908380818358e-01 -3.9586142326746357e-04 4.2251898782049796e-04  1.7525395541690103e-01 -6.0831675046911981e-04 5.4308583748169923e-04  1.7502217423914659e-01 -8.0433531482585374e-04 5.1138379737801509e-04  1.7488983613309711e-01 -7.7143671719937066e-04 7.5593513396137919e-05  1.7551849688113275e-01 -3.3232150855741938e-04 -9.8160689793395906e-04  1.7785176198351602e-01 3.1644992079927559e-04 -1.7272853855410735e-03  1.8099655851735921e-01 -1.3587476273255159e-04 1.8112179010940706e-03  1.9294228310470171e-01 -8.7166145291837289e-05 1.7349256573574053e-04  1.9262622528851525e-01 5.2904561263333644e-04 1.1355605660261772e-03  1.9261158712240306e-01 -1.9155442342027709e-04 1.2396034997292390e-04  1.9237830358341884e-01 -2.1171060945332669e-04 2.2950115095035531e-04  1.9221507344943439e-01 -2.6972625781646704e-04 3.3215169455351858e-04  1.9204322501454904e-01 -3.5808612271447104e-04 3.8712948351312190e-04  1.9190697017227057e-01 -4.0900078014499816e-04 2.9480918328628577e-04  1.9205775300406205e-01 -2.9068062711068340e-04 -1.3598450292420265e-04  1.9303832831881870e-01 1.0837447708962863e-04 -1.0448352389014566e-03  1.9511974031586660e-01 6.2700756243173959e-04 -1.4294971748058073e-03  1.9780754719434532e-01 3.0129597079328998e-05 1.4785051785824517e-03  1.7597337463640653e-01 -7.1026025005859356e-05 1.4025287704711063e-04  1.7576698513101199e-01 2.9641927795758476e-04 1.0686592271956035e-03  1.7569799437170658e-01 -1.3997934116131275e-04 1.0322454539849136e-04  1.7550058134653682e-01 -1.1898315074776736e-04 1.9428815931912320e-04  1.7534676904852714e-01 -1.0637353519304303e-04 2.7696853114582420e-04  1.7519027200129852e-01 -1.0372763961581128e-04 3.1674792240472718e-04  1.7510687131609684e-01 -7.5677414700882901e-05 2.3647217534985171e-04  1.7536777007975279e-01 3.6490973418598200e-05 -1.0700312365315834e-04  1.7638425262351876e-01 2.6722885023507543e-04 -8.0978795217799624e-04  1.7811011057855772e-01 4.5679091091038564e-04 -9.1786117208772066e-04  1.7985180753622718e-01 -5.5271870718352481e-05 1.3701734233434197e-03  1.1518717518609183e-01 -3.9933750630736217e-05 7.2761247329835584e-05  1.1572393274777185e-01 3.5970223120530723e-04 8.8476563111975794e-04  1.1496979835529224e-01 -3.8539251600038023e-05 5.6294166578941477e-05  1.1485574060727492e-01 4.2682916584943492e-05 1.2658488828131749e-04  1.1478486066331141e-01 1.2312102462663351e-04 1.8483081342686824e-04  1.1471020139309365e-01 1.9884452872170582e-04 2.0755264321449822e-04  1.1466800241201447e-01 2.7751117317953374e-04 1.3758724551497979e-04  1.1484806780705029e-01 3.6312266504938683e-04 -1.2535969882990303e-04  1.1557888663419168e-01 4.4124200919343172e-04 -5.7631843890412358e-04  1.1691063901915208e-01 4.7179659351508367e-04 -4.5443279574743588e-04  1.1713518279171387e-01 -2.6512490768154176e-05 1.3884855853871106e-03  8.8707316910864109e-04 6.5081236310226914e-06 -1.0921118809697637e-07  9.1037202027871263e-04 2.4193214017743667e-06 2.0468866559481520e-06  8.2545819085040660e-04 1.6184361842891238e-05 2.3013947816654085e-06  7.1850555417003509e-04 3.5829465508456162e-05 6.7029293549138090e-06  5.6411696595079887e-04 5.3878282801608474e-05 1.7683463040823566e-05  3.4720373564615882e-04 6.5379321331949383e-05 4.0909355158767559e-05  5.5792167388401782e-05 6.4833535845422796e-05 7.8102629107199622e-05  -3.1954287523048284e-04 5.2599565879697907e-05 1.2039535589600619e-04  -7.5891760514357686e-04 3.7044199842688160e-05 1.4073275499930035e-04  -1.1316472308405623e-03 2.1376114758089692e-05 1.0919537374849747e-04  -1.2820173033158330e-03 1.8981613885332349e-05 8.8510027596810597e-05  1.2554239954709617e-01 1.6428398391083552e-04 1.4514331659462866e-04  6.1208853951389352e-04 1.5544680439994021e-04 1.5034919963398916e-05  6.6650594311536680e-04 1.0137834249106214e-04 1.3666277306152156e-05  1.2482598760795774e-01 7.1057026497068276e-04 8.0477715663373106e-04  1.2515346053943829e-01 1.6513404555591541e-05 4.4758223818626380e-05  5.1436074078562756e-04 2.7298128404397367e-04 2.3244845631626707e-05  1.2525398785354577e-01 -9.2128693230879503e-05 1.4660456555794452e-04  3.7271912666733567e-04 4.2531221846742450e-04 2.1935682730750836e-05  1.2526722396984746e-01 -2.3420097101272373e-04 3.4344073512122781e-04  2.0075656635201001e-04 6.3128625422701065e-04 -1.2885219918329164e-06  1.2509895872643412e-01 -4.9876669161516476e-04 6.7470913611338392e-04  1.7748450251371973e-05 8.9641312003684546e-04 -6.2998883361997451e-05  1.2457860843718789e-01 -9.9326242723982703e-04 1.1372228904117140e-03  -1.7305735350780377e-04 1.1568684714045618e-03 -1.4921691426101295e-04  1.2345269486617370e-01 -1.5833383582773155e-03 1.4563707266271964e-03  -4.2787906058714011e-04 1.2219087874367023e-03 -1.2735098819748638e-04  1.2224438219074682e-01 -1.2187437395561160e-03 9.7775409204704528e-04  -6.9811095851342374e-04 8.7877760067951759e-04 2.3892502922724784e-04  1.2605333732554042e-01 -1.0791915596756569e-03 -6.9765692476074731e-04  -9.4939340941311851e-04 3.9101410003836195e-04 2.2712892070695185e-05  1.3296555235344928e-01 -9.5571371162064540e-04 3.8848130984734282e-03  -1.1312314831518101e-03 2.6345275171127803e-04 -2.1226785914271376e-04  1.9302333816917810e-01 -2.2058686138371530e-04 1.8851758833044954e-04  1.9264629454180612e-01 7.4794683678628521e-04 9.0652052741010654e-04  1.9268879764673555e-01 -2.0795330749736165e-04 8.8609743855192061e-05  1.9252842600813708e-01 -2.8343194120801306e-04 1.9460345674359838e-04  1.9242289073876892e-01 -4.6700190784390485e-04 3.3816106327864813e-04  1.9222265482717896e-01 -7.9258845715062865e-04 4.7386598023999184e-04  1.9184549534283796e-01 -1.2514558147618563e-03 4.7572610916915613e-04  1.9136588245557970e-01 -1.5163274922471593e-03 1.5908970256534310e-05  1.9169903873548769e-01 -7.5954538767612702e-04 -1.2828930260104820e-03  1.9482780739289959e-01 9.5989443919989562e-04 -3.3412757170995437e-03  2.0022251712501113e-01 -4.9339937326434082e-04 2.5152160500995831e-03  2.1200908267057827e-01 -1.0865357290115640e-04 1.6995315923893836e-04  2.1174531938394653e-01 5.2667967550588642e-04 9.1778943395687794e-04  2.1174463175104899e-01 -2.0456375503325505e-04 7.8916760134158635e-05  2.1154808330157765e-01 -2.3403561367839302e-04 1.6899255284934627e-04  2.1139579801243130e-01 -3.2119100886215468e-04 2.6550792207498592e-04  2.1118751559239007e-01 -4.7286944327421530e-04 3.1514776692938881e-04  2.1088677821753479e-01 -6.2438183214990153e-04 2.1915494000280836e-04  2.1069511053785736e-01 -5.4747945404257960e-04 -2.2166654920402465e-04  2.1167690943016293e-01 1.3136038202731407e-04 -1.2401412741389281e-03  2.1486006802034505e-01 1.2762386249626065e-03 -2.8970148410530218e-03  2.1908588531943876e-01 -1.8616098725234242e-05 1.5842946593249258e-03  1.9289279013845900e-01 -8.5365402405646016e-05 1.4992949391696856e-04  1.9274113604673779e-01 2.8532738754228129e-04 8.9217338272874725e-04  1.9268140078351415e-01 -1.4767666577093707e-04 6.5511148151591842e-05  1.9251957269631903e-01 -1.2674550968465504e-04 1.4196616063676251e-04  1.9237704119378712e-01 -1.2837610352335496e-04 2.1717699190762244e-04  1.9219242863152064e-01 -1.5161464013061532e-04 2.4832263617401639e-