<?xml version="1.0"?>
<VTKFile type="UnstructuredGrid"  version="0.1"  >
<UnstructuredGrid>
<Piece  NumberOfPoints="533" NumberOfCells="2122">
<Points>
<DataArray  type="Float64"  NumberOfComponents="3"  format="ascii">0 0.2 0.2  0.1 0.2 0.2  0.1 0.3 0.2  0.1 0.3 0.3  0.1 0.2 0.3  0 0.2 0.3  0 0.3 0.2  0 0.3 0.3  0.2 0.2 0.2  0.2 0.3 0.2  0.2 0.3 0.3  0.2 0.2 0.3  0.3 0.2 0.2  0.3 0.3 0.2  0.3 0.3 0.3  0.3 0.2 0.3  0.4 0.2 0.2  0.4 0.3 0.2  0.4 0.3 0.3  0.4 0.2 0.3  0.5 0.2 0.2  0.5 0.3 0.2  0.5 0.3 0.3  0.5 0.2 0.3  0.6 0.2 0.2  0.6 0.3 0.2  0.6 0.3 0.3  0.6 0.2 0.3  0.7 0.2 0.2  0.7 0.3 0.2  0.7 0.3 0.3  0.7 0.2 0.3  0.8 0.2 0.2  0.8 0.3 0.2  0.8 0.3 0.3  0.8 0.2 0.3  0.9 0.2 0.2  0.9 0.3 0.2  0.9 0.3 0.3  0.9 0.2 0.3  1 0.2 0.2  1 0.3 0.2  1 0.3 0.3  1 0.2 0.3  0.1 0.4 0.2  0.1 0.4 0.3  0 0.4 0.2  0 0.4 0.3  0.2 0.4 0.2  0.2 0.4 0.3  0.3 0.4 0.2  0.3 0.4 0.3  0.4 0.4 0.2  0.4 0.4 0.3  0.5 0.4 0.2  0.5 0.4 0.3  0.6 0.4 0.2  0.6 0.4 0.3  0.7 0.4 0.2  0.7 0.4 0.3  0.8 0.4 0.2  0.8 0.4 0.3  0.9 0.4 0.2  0.9 0.4 0.3  1 0.4 0.2  1 0.4 0.3  0.1 0.5 0.2  0.1 0.5 0.3  0 0.5 0.2  0 0.5 0.3  0.2 0.5 0.2  0.2 0.5 0.3  0.3 0.5 0.2  0.3 0.5 0.3  0.4 0.5 0.2  0.4 0.5 0.3  0.5 0.5 0.2  0.5 0.5 0.3  0.6 0.5 0.2  0.6 0.5 0.3  0.7 0.5 0.2  0.7 0.5 0.3  0.8 0.5 0.2  0.8 0.5 0.3  0.9 0.5 0.2  0.9 0.5 0.3  1 0.5 0.2  1 0.5 0.3  0.1 0.6 0.2  0.1 0.6 0.3  0 0.6 0.2  0 0.6 0.3  0.2 0.6 0.2  0.2 0.6 0.3  0.3 0.6 0.2  0.3 0.6 0.3  0.4 0.6 0.2  0.4 0.6 0.3  0.5 0.6 0.2  0.5 0.6 0.3  0.6 0.6 0.2  0.6 0.6 0.3  0.7 0.6 0.2  0.7 0.6 0.3  0.8 0.6 0.2  0.8 0.6 0.3  0.9 0.6 0.2  0.9 0.6 0.3  1 0.6 0.2  1 0.6 0.3  0.1 0.7 0.2  0.1 0.7 0.3  0 0.7 0.2  0 0.7 0.3  0.2 0.7 0.2  0.2 0.7 0.3  0.3 0.7 0.2  0.3 0.7 0.3  0.4 0.7 0.2  0.4 0.7 0.3  0.5 0.7 0.2  0.5 0.7 0.3  0.6 0.7 0.2  0.6 0.7 0.3  0.7 0.7 0.2  0.7 0.7 0.3  0.8 0.7 0.2  0.8 0.7 0.3  0.9 0.7 0.2  0.9 0.7 0.3  1 0.7 0.2  1 0.7 0.3  0.1 0.8 0.2  0.1 0.8 0.3  0 0.8 0.2  0 0.8 0.3  0.2 0.8 0.2  0.2 0.8 0.3  0.3 0.8 0.2  0.3 0.8 0.3  0.4 0.8 0.2  0.4 0.8 0.3  0.5 0.8 0.2  0.5 0.8 0.3  0.6 0.8 0.2  0.6 0.8 0.3  0.7 0.8 0.2  0.7 0.8 0.3  0.8 0.8 0.2  0.8 0.8 0.3  0.9 0.8 0.2  0.9 0.8 0.3  1 0.8 0.2  1 0.8 0.3  0.1 0.3 0.4  0.1 0.2 0.4  0 0.2 0.4  0 0.3 0.4  0.2 0.3 0.4  0.2 0.2 0.4  0.3 0.3 0.4  0.3 0.2 0.4  0.4 0.3 0.4  0.4 0.2 0.4  0.5 0.3 0.4  0.5 0.2 0.4  0.6 0.3 0.4  0.6 0.2 0.4  0.7 0.3 0.4  0.7 0.2 0.4  0.8 0.3 0.4  0.8 0.2 0.4  0.9 0.3 0.4  0.9 0.2 0.4  1 0.3 0.4  1 0.2 0.4  0.1 0.4 0.4  0 0.4 0.4  0.2 0.4 0.4  0.3 0.4 0.4  0.4 0.4 0.4  0.5 0.4 0.4  0.6 0.4 0.4  0.7 0.4 0.4  0.8 0.4 0.4  0.9 0.4 0.4  1 0.4 0.4  0.1 0.5 0.4  0 0.5 0.4  0.2 0.5 0.4  0.3 0.5 0.4  0.4 0.5 0.4  0.5 0.5 0.4  0.6 0.5 0.4  0.7 0.5 0.4  0.8 0.5 0.4  0.9 0.5 0.4  1 0.5 0.4  0.1 0.6 0.4  0 0.6 0.4  0.2 0.6 0.4  0.3 0.6 0.4  0.4 0.6 0.4  0.5 0.6 0.4  0.6 0.6 0.4  0.7 0.6 0.4  0.8 0.6 0.4  0.9 0.6 0.4  1 0.6 0.4  0.1 0.7 0.4  0 0.7 0.4  0.2 0.7 0.4  0.3 0.7 0.4  0.4 0.7 0.4  0.5 0.7 0.4  0.6 0.7 0.4  0.7 0.7 0.4  0.8 0.7 0.4  0.9 0.7 0.4  1 0.7 0.4  0.1 0.8 0.4  0 0.8 0.4  0.2 0.8 0.4  0.3 0.8 0.4  0.4 0.8 0.4  0.5 0.8 0.4  0.6 0.8 0.4  0.7 0.8 0.4  0.8 0.8 0.4  0.9 0.8 0.4  1 0.8 0.4  0.1 0.3 0.5  0.1 0.2 0.5  0 0.2 0.5  0 0.3 0.5  0.2 0.3 0.5  0.2 0.2 0.5  0.3 0.3 0.5  0.3 0.2 0.5  0.4 0.3 0.5  0.4 0.2 0.5  0.5 0.3 0.5  0.5 0.2 0.5  0.6 0.3 0.5  0.6 0.2 0.5  0.7 0.3 0.5  0.7 0.2 0.5  0.8 0.3 0.5  0.8 0.2 0.5  0.9 0.3 0.5  0.9 0.2 0.5  1 0.3 0.5  1 0.2 0.5  0.1 0.4 0.5  0 0.4 0.5  0.2 0.4 0.5  0.3 0.4 0.5  0.4 0.4 0.5  0.5 0.4 0.5  0.6 0.4 0.5  0.7 0.4 0.5  0.8 0.4 0.5  0.9 0.4 0.5  1 0.4 0.5  0.1 0.5 0.5  0 0.5 0.5  0.2 0.5 0.5  0.3 0.5 0.5  0.4 0.5 0.5  0.5 0.5 0.5  0.6 0.5 0.5  0.7 0.5 0.5  0.8 0.5 0.5  0.9 0.5 0.5  1 0.5 0.5  0.1 0.6 0.5  0 0.6 0.5  0.2 0.6 0.5  0.3 0.6 0.5  0.4 0.6 0.5  0.5 0.6 0.5  0.6 0.6 0.5  0.7 0.6 0.5  0.8 0.6 0.5  0.9 0.6 0.5  1 0.6 0.5  0.1 0.7 0.5  0 0.7 0.5  0.2 0.7 0.5  0.3 0.7 0.5  0.4 0.7 0.5  0.5 0.7 0.5  0.6 0.7 0.5  0.7 0.7 0.5  0.8 0.7 0.5  0.9 0.7 0.5  1 0.7 0.5  0.1 0.8 0.5  0 0.8 0.5  0.2 0.8 0.5  0.3 0.8 0.5  0.4 0.8 0.5  0.5 0.8 0.5  0.6 0.8 0.5  0.7 0.8 0.5  0.8 0.8 0.5  0.9 0.8 0.5  1 0.8 0.5  0.1 0.3 0.6  0.1 0.2 0.6  0 0.2 0.6  0 0.3 0.6  0.2 0.3 0.6  0.2 0.2 0.6  0.3 0.3 0.6  0.3 0.2 0.6  0.4 0.3 0.6  0.4 0.2 0.6  0.5 0.3 0.6  0.5 0.2 0.6  0.6 0.3 0.6  0.6 0.2 0.6  0.7 0.3 0.6  0.7 0.2 0.6  0.8 0.3 0.6  0.8 0.2 0.6  0.9 0.3 0.6  0.9 0.2 0.6  1 0.3 0.6  1 0.2 0.6  0.1 0.4 0.6  0 0.4 0.6  0.2 0.4 0.6  0.3 0.4 0.6  0.4 0.4 0.6  0.5 0.4 0.6  0.6 0.4 0.6  0.7 0.4 0.6  0.8 0.4 0.6  0.9 0.4 0.6  1 0.4 0.6  0.1 0.5 0.6  0 0.5 0.6  0.2 0.5 0.6  0.3 0.5 0.6  0.4 0.5 0.6  0.5 0.5 0.6  0.6 0.5 0.6  0.7 0.5 0.6  0.8 0.5 0.6  0.9 0.5 0.6  1 0.5 0.6  0.1 0.6 0.6  0 0.6 0.6  0.2 0.6 0.6  0.3 0.6 0.6  0.4 0.6 0.6  0.5 0.6 0.6  0.6 0.6 0.6  0.7 0.6 0.6  0.8 0.6 0.6  0.9 0.6 0.6  1 0.6 0.6  0.1 0.7 0.6  0 0.7 0.6  0.2 0.7 0.6  0.3 0.7 0.6  0.4 0.7 0.6  0.5 0.7 0.6  0.6 0.7 0.6  0.7 0.7 0.6  0.8 0.7 0.6  0.9 0.7 0.6  1 0.7 0.6  0.1 0.8 0.6  0 0.8 0.6  0.2 0.8 0.6  0.3 0.8 0.6  0.4 0.8 0.6  0.5 0.8 0.6  0.6 0.8 0.6  0.7 0.8 0.6  0.8 0.8 0.6  0.9 0.8 0.6  1 0.8 0.6  0.1 0.3 0.7  0.1 0.2 0.7  0 0.2 0.7  0 0.3 0.7  0.2 0.3 0.7  0.2 0.2 0.7  0.3 0.3 0.7  0.3 0.2 0.7  0.4 0.3 0.7  0.4 0.2 0.7  0.5 0.3 0.7  0.5 0.2 0.7  0.6 0.3 0.7  0.6 0.2 0.7  0.7 0.3 0.7  0.7 0.2 0.7  0.8 0.3 0.7  0.8 0.2 0.7  0.9 0.3 0.7  0.9 0.2 0.7  1 0.3 0.7  1 0.2 0.7  0.1 0.4 0.7  0 0.4 0.7  0.2 0.4 0.7  0.3 0.4 0.7  0.4 0.4 0.7  0.5 0.4 0.7  0.6 0.4 0.7  0.7 0.4 0.7  0.8 0.4 0.7  0.9 0.4 0.7  1 0.4 0.7  0.1 0.5 0.7  0 0.5 0.7  0.2 0.5 0.7  0.3 0.5 0.7  0.4 0.5 0.7  0.5 0.5 0.7  0.6 0.5 0.7  0.7 0.5 0.7  0.8 0.5 0.7  0.9 0.5 0.7  1 0.5 0.7  0.1 0.6 0.7  0 0.6 0.7  0.2 0.6 0.7  0.3 0.6 0.7  0.4 0.6 0.7  0.5 0.6 0.7  0.6 0.6 0.7  0.7 0.6 0.7  0.8 0.6 0.7  0.9 0.6 0.7  1 0.6 0.7  0.1 0.7 0.7  0 0.7 0.7  0.2 0.7 0.7  0.3 0.7 0.7  0.4 0.7 0.7  0.5 0.7 0.7  0.6 0.7 0.7  0.7 0.7 0.7  0.8 0.7 0.7  0.9 0.7 0.7  1 0.7 0.7  0.1 0.8 0.7  0 0.8 0.7  0.2 0.8 0.7  0.3 0.8 0.7  0.4 0.8 0.7  0.5 0.8 0.7  0.6 0.8 0.7  0.7 0.8 0.7  0.8 0.8 0.7  0.9 0.8 0.7  1 0.8 0.7  0.1 0.3 0.8  0.1 0.2 0.8  0 0.2 0.8  0 0.3 0.8  0.2 0.3 0.8  0.2 0.2 0.8  0.3 0.3 0.8  0.3 0.2 0.8  0.4 0.3 0.8  0.4 0.2 0.8  0.5 0.3 0.8  0.5 0.2 0.8  0.6 0.3 0.8  0.6 0.2 0.8  0.7 0.3 0.8  0.7 0.2 0.8  0.8 0.3 0.8  0.8 0.2 0.8  0.9 0.3 0.8  0.9 0.2 0.8  1 0.3 0.8  1 0.2 0.8  0.1 0.4 0.8  0 0.4 0.8  0.2 0.4 0.8  0.3 0.4 0.8  0.4 0.4 0.8  0.5 0.4 0.8  0.6 0.4 0.8  0.7 0.4 0.8  0.8 0.4 0.8  0.9 0.4 0.8  1 0.4 0.8  0.1 0.5 0.8  0 0.5 0.8  0.2 0.5 0.8  0.3 0.5 0.8  0.4 0.5 0.8  0.5 0.5 0.8  0.6 0.5 0.8  0.7 0.5 0.8  0.8 0.5 0.8  0.9 0.5 0.8  1 0.5 0.8  0.1 0.6 0.8  0 0.6 0.8  0.2 0.6 0.8  0.3 0.6 0.8  0.4 0.6 0.8  0.5 0.6 0.8  0.6 0.6 0.8  0.7 0.6 0.8  0.8 0.6 0.8  0.9 0.6 0.8  1 0.6 0.8  0.1 0.7 0.8  0 0.7 0.8  0.2 0.7 0.8  0.3 0.7 0.8  0.4 0.7 0.8  0.5 0.7 0.8  0.6 0.7 0.8  0.7 0.7 0.8  0.8 0.7 0.8  0.9 0.7 0.8  1 0.7 0.8  0.1 0.8 0.8  0 0.8 0.8  0.2 0.8 0.8  0.3 0.8 0.8  0.4 0.8 0.8  </DataArray>
</Points>
<Cells>
[...]
<PointData  Vectors="f_23"> 
<DataArray  type="Float64"  Name="f_23"  NumberOfComponents="3" format="ascii">1.1723833083007390e-03 -1.8546645828535309e-05 7.4873867840929531e-05  1.0590634126845611e-03 -6.6958537596418708e-05 8.2492611814409514e-05  1.0613537793393852e-03 -2.2232729708893831e-05 5.0324475735936818e-05  1.1047560211530297e-01 5.4556426598964471e-04 6.2667284962254018e-04  1.1467173976966694e-03 -8.0866627005640951e-05 1.4130838909935038e-04  1.2466492661953091e-03 -9.0719363756567575e-05 1.4123947880423767e-04  1.1579089436886882e-03 2.7840000575911515e-05 -5.8033454806998379e-06  1.1205981034390824e-01 6.3219503614267848e-04 6.8269832167143008e-04  8.3666437336256513e-04 -9.9044366684926938e-05 1.6522410602824429e-04  8.5409444153431791e-04 -3.9612100335938037e-05 9.9177743633167660e-05  1.0947039121938495e-01 6.2848495354345124e-04 6.4089480056900598e-04  9.5921212661830967e-04 -1.3451515233262339e-04 2.5651799590374082e-04  5.8729987570065056e-04 -1.5800242247995876e-04 2.6035286594289838e-04  6.1596301386790517e-04 -8.8161245647237941e-05 1.7775839904837605e-04  1.0942269845447929e-01 5.0830262407494360e-04 5.2379067506536179e-04  7.4424775727204961e-04 -2.0018626167675664e-04 3.8453524118846875e-04  2.5798516510832249e-04 -2.2122805270768922e-04 3.7158472786229832e-04  3.1075019377279712e-04 -1.5062099474618231e-04 2.7423321820971037e-04  1.0943779113853853e-01 3.6735487295587536e-04 3.2938454644059075e-04  4.4606266012322388e-04 -2.7385093509569160e-04 5.4000311796885522e-04  -1.7419609269782969e-04 -2.5702060904143420e-04 4.8396605129095581e-04  -8.4339219897020548e-05 -2.0031518531457066e-04 3.8025389392284232e-04  1.0959310010023604e-01 2.4809692301900216e-04 9.4569970434181264e-05  1.4505275089824891e-05 -3.2299788981160303e-04 7.1859715460906813e-04  -6.6994680329358685e-04 -2.4491919314763554e-04 5.4419973245133308e-04  -5.4836974344718104e-04 -2.1498284760653526e-04 4.5541007386121343e-04  1.0989445209920468e-01 1.6038448899351071e-04 -1.3782554647794282e-04  -5.5093764040745649e-04 -3.1301191070032703e-04 8.5856609947612098e-04  -1.0955450537453201e-03 -1.9498573409386225e-04 4.7952384126855301e-04  -9.7766395038296821e-04 -1.8958893000594861e-04 4.3025245339407928e-04  1.1027233915970706e-01 5.8570246722848752e-05 -3.0427085916940287e-04  -1.1203699977096933e-03 -2.4190766655839352e-04 8.3480244081715572e-04  -1.2657363484977096e-03 -1.3386624622146228e-04 2.8590371579405007e-04  -1.1949731519383905e-03 -1.3748802859467750e-04 2.7544957064915161e-04  1.1060637000258058e-01 -9.3600290473484999e-05 -2.4705991173370627e-04  -1.4518162077127312e-03 -1.6087219713713176e-04 5.4619384627361091e-04  -1.2285059089970614e-03 -4.7400545073599260e-05 1.0781496134232975e-04  -1.1757588455724912e-03 -6.3193212113448635e-05 1.1899802496083731e-04  1.1077708635050733e-01 -3.0349159836494155e-04 2.9339777570918740e-05  -1.4409315920145486e-03 -7.1285626594760269e-05 2.2376182883650009e-04  -1.1464655053043328e-03 -9.3059934071014740e-05 1.5113413337969740e-04  -1.0996085719559797e-03 -8.5191348975737635e-05 1.4869037123007358e-04  1.1015908999093908e-01 -2.5122069939403957e-05 -7.3823489176890497e-05  -1.3155768015964547e-03 -9.3906878948740713e-05 2.3729515396969121e-04  1.0582841786334631e-03 7.2877402844523373e-06 1.3292351670114897e-06  1.3609314608077155e-01 4.3520074904182819e-04 7.2431581402007867e-04  1.1727699256064454e-03 3.4382465667013180e-05 -3.9880716270566328e-05  1.3729989999637576e-01 1.6915350637898212e-03 8.5952131154407084e-04  8.2390147018190408e-04 2.3390096301123445e-06 3.1758067676224593e-05  1.3521237736702402e-01 4.5121438292186795e-04 7.8882883243704702e-04  5.6986407307595425e-04 -3.1127806010493532e-05 9.7060630913230469e-05  1.3521388463061879e-01 3.9362054781270559e-04 5.8136672868868778e-04  2.6111345577749115e-04 -8.5539706699538606e-05 1.8450375658853239e-04  1.3541414608147909e-01 2.9866816438063701e-04 2.7791349965641083e-04  -1.1484619345085344e-04 -1.3824360346811481e-04 2.8850526680860607e-04  1.3576843639690742e-01 2.4479494545246708e-04 -9.2412014986754502e-07  -5.4512429932997500e-04 -1.6512027711216594e-04 3.7435340101640429e-04  1.3618354548177222e-01 2.2219948468345512e-04 -1.8926878094075217e-04  -9.4630406455228444e-04 -1.5340843901737823e-04 3.7647627365491068e-04  1.3653241820913037e-01 1.3952767192124867e-04 -2.7400037379164379e-04  -1.1420764956237318e-03 -1.1153896190849332e-04 2.5359806698694573e-04  1.3679199366903938e-01 -8.1968841143084030e-05 -2.4292516327251512e-04  -1.0831821708023801e-03 -6.0222866461800638e-05 1.1555037434148048e-04  1.3705480464325870e-01 -3.7443639544347779e-04 -1.9106385682399297e-04  -9.8892132702005581e-04 -7.2177174812827297e-05 1.5171881301047650e-04  1.3631292012123458e-01 3.0755826429474639e-04 -4.4859599958587098e-04  1.0645049579397804e-03 1.0436367910482481e-05 -4.9452186265875742e-06  1.4173858833089673e-01 5.0607459834458928e-04 1.0083741295859243e-03  1.1928273084069235e-03 1.2744197155899627e-05 -3.4878732107092262e-05  1.4276425222124411e-01 1.5772485614043066e-03 1.3021433846401532e-03  8.0646395942297585e-04 1.0858653449019770e-05 1.4384166184785154e-05  1.4090679508015910e-01 2.2438683337849344e-04 1.0430048842048408e-03  5.3118211662500246e-04 -9.7869811498649220e-06 6.7975366066302785e-05  1.4093690564980504e-01 9.8411181909867436e-05 7.8667026029688816e-04  2.0965232248906166e-04 -5.1186355045179279e-05 1.3785756003737037e-04  1.4115201206314146e-01 7.0766559637728303e-06 3.3781696749482618e-04  -1.5555431024044292e-04 -9.7176933225405352e-05 2.2751707399708347e-04  1.4158104157717127e-01 -2.7999219558821223e-06 -6.4591952108946067e-06  -5.5370897712515312e-04 -1.2270793874059923e-04 3.0787366834634296e-04  1.4203959976346128e-01 4.5045112481932161e-05 -1.7458477952967912e-04  -9.2108549920660583e-04 -1.1014283981371064e-04 3.2103156376254478e-04  1.4233083211147474e-01 4.6136905101180480e-05 -2.2318088049749489e-04  -1.0969585188858057e-03 -6.7854434590603648e-05 2.2352121838947967e-04  1.4251980022871946e-01 -1.1000688505410789e-04 -2.3811488637640168e-04  -1.0154022189590554e-03 -3.9697453992770348e-05 1.0770582572539798e-04  1.4292529797821787e-01 -4.0154674336983419e-04 -3.6424321115479020e-04  -9.1635301087901412e-04 -2.8457487360619359e-05 1.4685543036011109e-04  1.4247787269176543e-01 4.7403198700561843e-04 -4.4478415289070822e-04  1.0665445454411402e-03 -1.6901185303622347e-05 1.9439501363887494e-05  1.3597437479044672e-01 1.4228777896356602e-04 1.1916073471110085e-03  1.1962646569919373e-03 -2.8857742467199848e-05 3.9610271659284938e-07  1.3680183607317792e-01 7.5891744711993701e-04 1.6386468873360338e-03  8.0142786102850464e-04 -2.6546725385208747e-05 3.6531115839816343e-05  1.3505853397575460e-01 -3.8841582599313291e-05 1.2555001420604709e-03  5.1087046797766104e-04 -3.6665437652644792e-05 8.0415333948465189e-05  1.3498648157881496e-01 -1.3292410728608811e-04 9.6241233165172751e-04  1.7505956647741452e-04 -5.7073567333688031e-05 1.2894937693262146e-04  1.3514304528030649e-01 -1.7262295004311291e-04 3.7745483297122340e-04  -1.8597290525754868e-04 -8.2705921819775923e-05 1.9417552678965437e-04  1.3558375532039346e-01 -1.2950575956492921e-04 -2.2399689501440477e-05  -5.5696067875335973e-04 -9.4303125657324466e-05 2.5445127707402507e-04  1.3604397571683197e-01 -3.3691537950752276e-05 -1.7922577553735347e-04  -8.9099877613258870e-04 -7.5683902962117729e-05 2.6362467592942231e-04  1.3628035625045720e-01 4.0069635591787221e-05 -2.1703089292076272e-04  -1.0538892438793773e-03 -3.2679577129942303e-05 1.8443731470519273e-04  1.3642683383568402e-01 -1.9551327817551116e-05 -2.7432729192752587e-04  -9.7790855445792791e-04 -1.9618569300614569e-05 9.3058374134651390e-05  1.3702775912496193e-01 -4.3234823094571165e-04 -5.5218080190968979e-04  -8.8848952992809664e-04 1.1975547164816648e-05 1.2091261319591902e-04  1.3708322567451092e-01 4.1844953748876947e-04 -4.7693616853446954e-04  1.0621305724010396e-03 -5.9028994486847254e-05 3.8733213367252879e-05  1.0997041911110607e-01 -4.6616154022657212e-04 1.0486831591036807e-03  1.1823873676642246e-03 -4.7572613155840945e-05 3.0354493799324951e-05  1.1094564113847429e-01 -2.9609706857825667e-04 1.5946681795340142e-03  8.1483064476853360e-04 -9.1779973925025130e-05 6.3065655182142108e-05  1.0876024650822000e-01 -2.4388679721387368e-04 1.1112699613577016e-03  5.2390401361807819e-04 -1.0089261329059817e-04 1.0397788094149722e-04  1.0854908923665905e-01 -1.4359269066643038e-04 8.4856081127879354e-04  1.8332483202280464e-04 -1.0270185445044232e-04 1.4332644860596524e-04  1.0861926219340411e-01 -7.0521159861940293e-05 3.0493345423401175e-04  -1.7586781306632102e-04 -1.0237827734929829e-04 1.9166960341181490e-04  1.0900535418098914e-01 1.7523133280713971e-05 -5.9600698396683298e-05  -5.3623232452456183e-04 -9.0951020267352606e-05 2.3439228788076536e-04  1.0942512099536858e-01 9.9677889915954500e-05 -1.8723201380413756e-04  -8.5883882697204976e-04 -6.0759751942931219e-05 2.3638388911779700e-04  1.0958629178744943e-01 1.6524849080011846e-04 -2.0462232113296400e-04  -1.0196752008518356e-03 -1.7630042574319791e-05 1.6774979968996238e-04  1.0950008432744811e-01 2.0505400349289212e-04 -2.7940410210624557e-04  -9.6671417197673225e-04 5.3771270790863459e-06 8.3209327011012218e-05  1.1015582972088447e-01 -3.2613487038962126e-05 -6.3858870784665287e-04  -8.8972894596985573e-04 2.3441406139010343e-05 8.7218168277099060e-05  1.1131770869577458e-01 -2.0568567438040969e-04 -4.8660231993777141e-04  1.1578250743652346e-03 -5.8014536244659738e-05 -5.2556553298006895e-05  1.2153138588937133e-03 -4.1175085849279526e-05 2.6667361537823842e-05  1.3043626122520970e-03 -9.5794115140327717e-05 -2.0345808003517632e-06  1.2965567451177424e-03 -4.6705275043517076e-05 3.7180142267950404e-05  9.1723650845606966e-04 -9.5174038068203219e-05 -6.2114013200621323e-05  1.0631142909510089e-03 -9.6056876962704999e-05 6.0021852781514133e-05  6.4135759233565140e-04 -1.1172299396502912e-04 -2.6465702198673684e-05  7.8127529697137653e-04 -1.1526372216408718e-04 1.2625194343624289e-04  3.0612131792573881e-04 -1.0655817776870749e-04 2.2514022177091189e-05  4.4392219917179936e-04 -1.1896462198113409e-04 1.8957397039896296e-04  -5.4830257278537798e-05 -9.4428370129603329e-05 8.3350916379791094e-05  8.2089315325812668e-05 -1.1872785919471626e-04 2.4273666956971913e-04  -4.1465384439972149e-04 -7.4950574988000198e-05 1.3964355164495100e-04  -2.7724968392695405e-04 -1.1378260409537822e-04 2.8534234919306228e-04  -7.6027096291653954e-04 -4.4724958213437057e-05 1.7003487662115620e-04  -6.3539273262956707e-04 -9.4070655247802522e-05 3.0565296839209916e-04  -1.0097302416209762e-03 -1.4934539081619096e-05 1.5468741705019104e-04  -9.4411834172757416e-04 -5.5762580086724430e-05 2.7200146525017970e-04  -9.8888894640475800e-04 1.1301893137559472e-05 9.1656791736423890e-05  -1.0283753275385338e-03 -1.5174838077833969e-05 1.7037789522403589e-04  -9.0008691344598435e-04 2.0534232175898245e-05 7.9226845718429956e-05  -9.8527148464729519e-04 3.0979404494718268e-05 1.0117697823823289e-04  1.3616113389328638e-01 6.7300426472931469e-04 5.3175250220173758e-04  1.2750576132520195e-03 -1.3123196485992518e-04 1.9697090438489966e-04  1.3811568588235454e-03 -1.3060544485135297e-04 1.6335394203788049e-04  1.3750461453372523e-01 7.8653929440419281e-04 1.4657881185029011e-03  1.3519557511074651e-01 8.2710953431250269e-04 4.7463992301493760e-04  1.0962771938598037e-03 -2.0574658867837095e-04 3.4859100851745485e-04  1.3520361655050164e-01 6.4273453145045878e-04 3.8085380652747806e-04  9.1748762277945120e-04 -2.8730270664556782e-04 5.2251579233126026e-04  1.3535256944508919e-01 4.2492472639696794e-04 1.8971740435244709e-04  6.6020121382484413e-04 -3.8067340782034156e-04 7.4431844382572454e-04  1.3566328403243227e-01 3.0018845886644403e-04 -5.4168020324800810e-05  2.3735237238967682e-04 -4.5820900673260482e-04 1.0360023725800023e-03  1.3613303062257431e-01 2.9994416751398002e-04 -3.4529608411035771e-04  -4.3104310420581193e-04 -4.7358456118697952e-04 1.3630522344603333e-03  1.3676907356983917e-01 2.9593940212062754e-04 -6.3793570804373634e-04  -1.2634711406269944e-03 -3.7844555537880657e-04 1.5342557847842109e-03  1.3744633245511359e-01 1.6887529032556453e-04 -6.6842464954554824e-04  -1.8520805278289692e-03 -2.2170308050706091e-04 1.1796454169719359e-03  1.3766363560087022e-01 -9.1679385260903882e-05 -2.3015585805032178e-04  -1.9604743751235631e-03 -9.3262603618013851e-05 4.7312775230674115e-04  1.3786131927406900e-01 -2.3813834124268365e-04 -1.5325280905015416e-03  -1.8605299484366082e-03 -9.2031733011285595e-05 5.0969642686225433e-04  1.7563617691076019e-01 6.6694536396283888e-04 7.2115734596635088e-04  1.7543632835992398e-01 2.3899258961672634e-03 2.1299044237601821e-03  1.7497743347050396e-01 7.1957632520019716e-04 6.3292223287153798e-04  1.7495594154907856e-01 5.6922271073856921e-04 3.8938333321505986e-04  1.7538380051941599e-01 3.5063295578218216e-04 -1.6913974100413443e-07  1.7608467663288485e-01 3.2863029163001783e-04 -2.8416107462620577e-04  1.7683888643444695e-01 4.7167623452809044e-04 -4.3652052943652774e-04  1.7748125455023869e-01 5.5738663236738360e-04 -5.0309647590008157e-04  1.7795691353060303e-01 3.2602753527884149e-04 -3.8771311623825761e-04  1.7837744976717712e-01 -2.9429620171812082e-04 -1.5443955709314088e-04  1.7865581750764606e-01 4.3237248859241358e-04 -1.4265939653319824e-03  1.8511684979722939e-01 8.4575381922189115e-04 1.0854901242343992e-03  1.8427744952430697e-01 2.3837743787816223e-03 3.0290540963909319e-03  1.8464463029768075e-01 3.7470883649423636e-04 9.2534018960277800e-04  1.8458932173327816e-01 7.5203798854676953e-05 5.4709624152031032e-04  1.8504382229404889e-01 -1.8829464695544967e-04 -1.8569972827580644e-04  1.8595545105068512e-01 -1.5225886349906167e-04 -4.9778621194514444e-04  1.8686131675994735e-01 9.6598140753047048e-05 -4.6556823326578746e-04  1.8744167879259924e-01 2.7009351085233315e-04 -3.3172510295551445e-04  1.8771502602712073e-01 1.0128706938670036e-04 -1.4864865300334986e-04  1.8814179724268046e-01 -5.4268471272196953e-04 -1.2677250510340440e-04  1.8879209125312557e-01 4.4714622119154440e-04 -9.6447431327134647e-04  1.7576190952682480e-01 4.1111234998174475e-04 1.4741080729672531e-03  1.7449086988690371e-01 1.3333746867381984e-03 3.7064058243603502e-03  1.7520166707603635e-01 -1.6703622303717582e-06 1.2806561362000142e-03  1.7491697285538507e-01 -3.3803395658842529e-04 7.3456576193448194e-04  1.7526583675940341e-01 -5.3602902922492103e-04 -4.1169218994358751e-04  1.7626830036464480e-01 -4.2384883146472378e-04 -7.0633288152158354e-04  1.7720963883546070e-01 -1.4097274604591960e-04 -4.8104280023412034e-04  1.7768021854383878e-01 6.4000631950903822e-05 -2.1531466786078307e-04  1.7779598069516864e-01 -1.7945947103911724e-05 -9.5901751024112843e-05  1.7830001499554024e-01 -7.9080560367857306e-04 -2.9434382726524553e-04  1.7940848633404674e-01 1.9562723583028380e-04 -7.1359313525037275e-04  1.3665043632256332e-01 -2.9402836850137313e-04 1.3528846323676859e-03  1.3570236049404319e-01 -4.6945953288178219e-05 3.6237604509074808e-03  1.3569314530252116e-01 -2.5932687536043598e-04 1.3080703045136683e-03  1.3510599572673954e-01 -3.7868945565352726e-04 8.1820595258103610e-04  1.3520399023395430e-01 -4.0971213574496579e-04 -3.7832436391420208e-04  1.3607545883002395e-01 -2.6977119757686565e-04 -6.6416674223002917e-04  1.3691352304454332e-01 -6.6306571606016655e-05 -4.2081612403066087e-04  1.3725654431953963e-01 7.3641394883838202e-05 -1.6059890141451478e-04  1.3703589603560754e-01 1.1900361773489485e-04 -9.7949210310084093e-05  1.3751693506912446e-01 -2.9182661724551449e-04 -4.1441401771201913e-04  1.3969643613065980e-01 -6.0026585935662893e-04 -4.4997838238124621e-04  1.3187917293927939e-03 -2.6078153147549926e-05 1.2500552684986227e-04  1.4000604747742764e-03 -2.4070673441474181e-05 1.2986875566572417e-04  1.1377763442663843e-03 -5.9788869302338532e-05 2.3522442527145005e-04  8.7141760820077878e-04 -9.1213356372300521e-05 3.7612142892165794e-04  5.0672956233775517e-04 -1.1095484702493414e-04 4.7049067437761083e-04  1.2249009672769947e-04 -1.2880463331424593e-04 5.2188524360403347e-04  -2.2464650619712892e-04 -1.5029754460182249e-04 5.5148820264407561e-04  -6.0060130357356383e-04 -1.5557184854769513e-04 5.7690762222659142e-04  -9.9676165641288139e-04 -1.2796994683806400e-04 5.4598539728983246e-04  -1.1768358290559881e-03 -7.2936895556808041e-05 3.8668072162224767e-04  -1.1437915657204608e-03 -4.7723184160917421e-06 2.5431875049960903e-04  1.4187391669660618e-01 1.0023239069241504e-03 5.2460146199729337e-04  1.4217003024246419e-03 -1.3767373749988771e-04 1.7882422563437824e-04  1.5264436460057931e-03 -1.2629611222209953e-04 1.2189367463572067e-04  1.4304618298582500e-01 1.2984501413786766e-03 1.3226703389234236e-03  1.4091195544832100e-01 1.1103365834963603e-03 2.7934067973249327e-04  1.2570846827909519e-03 -2.2132648183548732e-04 3.2403438534622071e-04  1.4092340572605927e-01 8.8763617847654683e-04 1.5144143972894256e-04  1.1260751226731577e-03 -3.1061968794353969e-04 4.9942750886270153e-04  1.4105000790330019e-01 5.4843794424872081e-04 9.8718972973181322e-06  9.5017096482485387e-04 -4.2247026056574502e-04 7.3571404167511122e-04  1.4140341982352653e-01 4.1471892608352671e-04 -1.3795047932753946e-04  6.2780393750971322e-04 -5.3728572862377631e-04 1.0870257177348957e-03  1.4196740528609916e-01 5.9420726479008799e-04 -3.8425759148543208e-04  -5.0980065237522825e-05 -6.2745805958847034e-04 1.6097315683998726e-03  1.4274740639703892e-01 1.0183907924294956e-03 -9.1986344347751788e-04  -1.2559861791636622e-03 -6.1153635586434286e-04 2.2378475572936542e-03  1.4381112569179633e-01 1.1255710961774719e-03 -1.6985275197949875e-03  -2.4156440348400642e-03 -3.9984287369221268e-04 2.4809200920125406e-03  1.4431382048775915e-01 1.1905372266401298e-03 -2.2529854031992044e-03  -2.8771880099857641e-03 -1.7647925140580934e-04 1.0367737463213309e-03  1.4502710420531764e-01 1.2688010828125359e-03 -5.7336423732295468e-03  -3.0556146346305867e-03 -1.1173073534285070e-04 1.1400989450219522e-03  1.8517396360518465e-01 1.0920321854857532e-03 8.2657415582664375e-04  1.8435695128318294e-01 3.3363211185190090e-03 2.0689649933149420e-03  1.8464811964551389e-01 1.0730201355680668e-03 3.4299204621069860e-04  1.8456727886814714e-01 8.1055215311504460e-04 -2.1304003819382600e-05  1.8500405761574698e-01 2.8776675076626048e-04 -4.1711468690706606e-04  1.8593861241355439e-01 3.0417109743653367e-04 -5.8611504061711179e-04  1.8701467163084567e-01 7.7416128306683732e-04 -5.9060647168190819e-04  1.8802605474714526e-01 1.3446521803038998e-03 -6.8485268717847667e-04  1.8889254017619841e-01 1.5012051429462857e-03 -1.0314840545100554e-03  1.9005909258069836e-01 7.0645066269307258e-04 -1.2988573004075340e-03  1.9177205623699686e-01 2.0166424153624978e-03 -4.4967680559929073e-03  1.9595598570189066e-01 1.3433168827880072e-03 1.2958802789759193e-03  1.9395325559299137e-01 3.4775429483945406e-03 3.1347150970078199e-03  1.9576886937746707e-01 5.8366616035000730e-04 5.1463424301322134e-04  1.9548498103947665e-01 -4.7315855584111395e-05 -1.9744226325237092e-04  1.9592698669729566e-01 -8.4713920789001250e-04 -1.1494235663375831e-03  1.9741898413334000e-01 -6.9967198424795887e-04 -1.2120574384163060e-03  1.9884395198814592e-01 2.9356275883608689e-07 -7.3581032528440796e-04  1.9987302497768200e-01 5.7290871975960815e-04 -3.3233514704962639e-04  2.0051940216564629e-01 5.6156939671212446e-04 -2.6902419762229557e-04  2.0154990063802172e-01 -3.4091275851725738e-04 -4.8877210146031362e-04  2.0372875728815773e-01 1.1111839820050016e-03 -2.6116126424459724e-03  1.8543393262351238e-01 7.5691638356876741e-04 1.8845700903408751e-03  1.8246884157826712e-01 2.2433884232805229e-03 4.1600230660353479e-03  1.8519500063767130e-01 -9.9889350777739475e-05 1.0422468853087999e-03  1.8458123743119972e-01 -1.0040267826921620e-03 -4.6392470570616890e-04  1.8483991657187707e-01 -1.7842669