<?xml version="1.0"?>
<VTKFile type="UnstructuredGrid"  version="0.1"  >
<UnstructuredGrid>
<Piece  NumberOfPoints="533" NumberOfCells="2122">
<Points>
<DataArray  type="Float64"  NumberOfComponents="3"  format="ascii">0 0.2 0.2  0.1 0.2 0.2  0.1 0.3 0.2  0.1 0.3 0.3  0.1 0.2 0.3  0 0.2 0.3  0 0.3 0.2  0 0.3 0.3  0.2 0.2 0.2  0.2 0.3 0.2  0.2 0.3 0.3  0.2 0.2 0.3  0.3 0.2 0.2  0.3 0.3 0.2  0.3 0.3 0.3  0.3 0.2 0.3  0.4 0.2 0.2  0.4 0.3 0.2  0.4 0.3 0.3  0.4 0.2 0.3  0.5 0.2 0.2  0.5 0.3 0.2  0.5 0.3 0.3  0.5 0.2 0.3  0.6 0.2 0.2  0.6 0.3 0.2  0.6 0.3 0.3  0.6 0.2 0.3  0.7 0.2 0.2  0.7 0.3 0.2  0.7 0.3 0.3  0.7 0.2 0.3  0.8 0.2 0.2  0.8 0.3 0.2  0.8 0.3 0.3  0.8 0.2 0.3  0.9 0.2 0.2  0.9 0.3 0.2  0.9 0.3 0.3  0.9 0.2 0.3  1 0.2 0.2  1 0.3 0.2  1 0.3 0.3  1 0.2 0.3  0.1 0.4 0.2  0.1 0.4 0.3  0 0.4 0.2  0 0.4 0.3  0.2 0.4 0.2  0.2 0.4 0.3  0.3 0.4 0.2  0.3 0.4 0.3  0.4 0.4 0.2  0.4 0.4 0.3  0.5 0.4 0.2  0.5 0.4 0.3  0.6 0.4 0.2  0.6 0.4 0.3  0.7 0.4 0.2  0.7 0.4 0.3  0.8 0.4 0.2  0.8 0.4 0.3  0.9 0.4 0.2  0.9 0.4 0.3  1 0.4 0.2  1 0.4 0.3  0.1 0.5 0.2  0.1 0.5 0.3  0 0.5 0.2  0 0.5 0.3  0.2 0.5 0.2  0.2 0.5 0.3  0.3 0.5 0.2  0.3 0.5 0.3  0.4 0.5 0.2  0.4 0.5 0.3  0.5 0.5 0.2  0.5 0.5 0.3  0.6 0.5 0.2  0.6 0.5 0.3  0.7 0.5 0.2  0.7 0.5 0.3  0.8 0.5 0.2  0.8 0.5 0.3  0.9 0.5 0.2  0.9 0.5 0.3  1 0.5 0.2  1 0.5 0.3  0.1 0.6 0.2  0.1 0.6 0.3  0 0.6 0.2  0 0.6 0.3  0.2 0.6 0.2  0.2 0.6 0.3  0.3 0.6 0.2  0.3 0.6 0.3  0.4 0.6 0.2  0.4 0.6 0.3  0.5 0.6 0.2  0.5 0.6 0.3  0.6 0.6 0.2  0.6 0.6 0.3  0.7 0.6 0.2  0.7 0.6 0.3  0.8 0.6 0.2  0.8 0.6 0.3  0.9 0.6 0.2  0.9 0.6 0.3  1 0.6 0.2  1 0.6 0.3  0.1 0.7 0.2  0.1 0.7 0.3  0 0.7 0.2  0 0.7 0.3  0.2 0.7 0.2  0.2 0.7 0.3  0.3 0.7 0.2  0.3 0.7 0.3  0.4 0.7 0.2  0.4 0.7 0.3  0.5 0.7 0.2  0.5 0.7 0.3  0.6 0.7 0.2  0.6 0.7 0.3  0.7 0.7 0.2  0.7 0.7 0.3  0.8 0.7 0.2  0.8 0.7 0.3  0.9 0.7 0.2  0.9 0.7 0.3  1 0.7 0.2  1 0.7 0.3  0.1 0.8 0.2  0.1 0.8 0.3  0 0.8 0.2  0 0.8 0.3  0.2 0.8 0.2  0.2 0.8 0.3  0.3 0.8 0.2  0.3 0.8 0.3  0.4 0.8 0.2  0.4 0.8 0.3  0.5 0.8 0.2  0.5 0.8 0.3  0.6 0.8 0.2  0.6 0.8 0.3  0.7 0.8 0.2  0.7 0.8 0.3  0.8 0.8 0.2  0.8 0.8 0.3  0.9 0.8 0.2  0.9 0.8 0.3  1 0.8 0.2  1 0.8 0.3  0.1 0.3 0.4  0.1 0.2 0.4  0 0.2 0.4  0 0.3 0.4  0.2 0.3 0.4  0.2 0.2 0.4  0.3 0.3 0.4  0.3 0.2 0.4  0.4 0.3 0.4  0.4 0.2 0.4  0.5 0.3 0.4  0.5 0.2 0.4  0.6 0.3 0.4  0.6 0.2 0.4  0.7 0.3 0.4  0.7 0.2 0.4  0.8 0.3 0.4  0.8 0.2 0.4  0.9 0.3 0.4  0.9 0.2 0.4  1 0.3 0.4  1 0.2 0.4  0.1 0.4 0.4  0 0.4 0.4  0.2 0.4 0.4  0.3 0.4 0.4  0.4 0.4 0.4  0.5 0.4 0.4  0.6 0.4 0.4  0.7 0.4 0.4  0.8 0.4 0.4  0.9 0.4 0.4  1 0.4 0.4  0.1 0.5 0.4  0 0.5 0.4  0.2 0.5 0.4  0.3 0.5 0.4  0.4 0.5 0.4  0.5 0.5 0.4  0.6 0.5 0.4  0.7 0.5 0.4  0.8 0.5 0.4  0.9 0.5 0.4  1 0.5 0.4  0.1 0.6 0.4  0 0.6 0.4  0.2 0.6 0.4  0.3 0.6 0.4  0.4 0.6 0.4  0.5 0.6 0.4  0.6 0.6 0.4  0.7 0.6 0.4  0.8 0.6 0.4  0.9 0.6 0.4  1 0.6 0.4  0.1 0.7 0.4  0 0.7 0.4  0.2 0.7 0.4  0.3 0.7 0.4  0.4 0.7 0.4  0.5 0.7 0.4  0.6 0.7 0.4  0.7 0.7 0.4  0.8 0.7 0.4  0.9 0.7 0.4  1 0.7 0.4  0.1 0.8 0.4  0 0.8 0.4  0.2 0.8 0.4  0.3 0.8 0.4  0.4 0.8 0.4  0.5 0.8 0.4  0.6 0.8 0.4  0.7 0.8 0.4  0.8 0.8 0.4  0.9 0.8 0.4  1 0.8 0.4  0.1 0.3 0.5  0.1 0.2 0.5  0 0.2 0.5  0 0.3 0.5  0.2 0.3 0.5  0.2 0.2 0.5  0.3 0.3 0.5  0.3 0.2 0.5  0.4 0.3 0.5  0.4 0.2 0.5  0.5 0.3 0.5  0.5 0.2 0.5  0.6 0.3 0.5  0.6 0.2 0.5  0.7 0.3 0.5  0.7 0.2 0.5  0.8 0.3 0.5  0.8 0.2 0.5  0.9 0.3 0.5  0.9 0.2 0.5  1 0.3 0.5  1 0.2 0.5  0.1 0.4 0.5  0 0.4 0.5  0.2 0.4 0.5  0.3 0.4 0.5  0.4 0.4 0.5  0.5 0.4 0.5  0.6 0.4 0.5  0.7 0.4 0.5  0.8 0.4 0.5  0.9 0.4 0.5  1 0.4 0.5  0.1 0.5 0.5  0 0.5 0.5  0.2 0.5 0.5  0.3 0.5 0.5  0.4 0.5 0.5  0.5 0.5 0.5  0.6 0.5 0.5  0.7 0.5 0.5  0.8 0.5 0.5  0.9 0.5 0.5  1 0.5 0.5  0.1 0.6 0.5  0 0.6 0.5  0.2 0.6 0.5  0.3 0.6 0.5  0.4 0.6 0.5  0.5 0.6 0.5  0.6 0.6 0.5  0.7 0.6 0.5  0.8 0.6 0.5  0.9 0.6 0.5  1 0.6 0.5  0.1 0.7 0.5  0 0.7 0.5  0.2 0.7 0.5  0.3 0.7 0.5  0.4 0.7 0.5  0.5 0.7 0.5  0.6 0.7 0.5  0.7 0.7 0.5  0.8 0.7 0.5  0.9 0.7 0.5  1 0.7 0.5  0.1 0.8 0.5  0 0.8 0.5  0.2 0.8 0.5  0.3 0.8 0.5  0.4 0.8 0.5  0.5 0.8 0.5  0.6 0.8 0.5  0.7 0.8 0.5  0.8 0.8 0.5  0.9 0.8 0.5  1 0.8 0.5  0.1 0.3 0.6  0.1 0.2 0.6  0 0.2 0.6  0 0.3 0.6  0.2 0.3 0.6  0.2 0.2 0.6  0.3 0.3 0.6  0.3 0.2 0.6  0.4 0.3 0.6  0.4 0.2 0.6  0.5 0.3 0.6  0.5 0.2 0.6  0.6 0.3 0.6  0.6 0.2 0.6  0.7 0.3 0.6  0.7 0.2 0.6  0.8 0.3 0.6  0.8 0.2 0.6  0.9 0.3 0.6  0.9 0.2 0.6  1 0.3 0.6  1 0.2 0.6  0.1 0.4 0.6  0 0.4 0.6  0.2 0.4 0.6  0.3 0.4 0.6  0.4 0.4 0.6  0.5 0.4 0.6  0.6 0.4 0.6  0.7 0.4 0.6  0.8 0.4 0.6  0.9 0.4 0.6  1 0.4 0.6  0.1 0.5 0.6  0 0.5 0.6  0.2 0.5 0.6  0.3 0.5 0.6  0.4 0.5 0.6  0.5 0.5 0.6  0.6 0.5 0.6  0.7 0.5 0.6  0.8 0.5 0.6  0.9 0.5 0.6  1 0.5 0.6  0.1 0.6 0.6  0 0.6 0.6  0.2 0.6 0.6  0.3 0.6 0.6  0.4 0.6 0.6  0.5 0.6 0.6  0.6 0.6 0.6  0.7 0.6 0.6  0.8 0.6 0.6  0.9 0.6 0.6  1 0.6 0.6  0.1 0.7 0.6  0 0.7 0.6  0.2 0.7 0.6  0.3 0.7 0.6  0.4 0.7 0.6  0.5 0.7 0.6  0.6 0.7 0.6  0.7 0.7 0.6  0.8 0.7 0.6  0.9 0.7 0.6  1 0.7 0.6  0.1 0.8 0.6  0 0.8 0.6  0.2 0.8 0.6  0.3 0.8 0.6  0.4 0.8 0.6  0.5 0.8 0.6  0.6 0.8 0.6  0.7 0.8 0.6  0.8 0.8 0.6  0.9 0.8 0.6  1 0.8 0.6  0.1 0.3 0.7  0.1 0.2 0.7  0 0.2 0.7  0 0.3 0.7  0.2 0.3 0.7  0.2 0.2 0.7  0.3 0.3 0.7  0.3 0.2 0.7  0.4 0.3 0.7  0.4 0.2 0.7  0.5 0.3 0.7  0.5 0.2 0.7  0.6 0.3 0.7  0.6 0.2 0.7  0.7 0.3 0.7  0.7 0.2 0.7  0.8 0.3 0.7  0.8 0.2 0.7  0.9 0.3 0.7  0.9 0.2 0.7  1 0.3 0.7  1 0.2 0.7  0.1 0.4 0.7  0 0.4 0.7  0.2 0.4 0.7  0.3 0.4 0.7  0.4 0.4 0.7  0.5 0.4 0.7  0.6 0.4 0.7  0.7 0.4 0.7  0.8 0.4 0.7  0.9 0.4 0.7  1 0.4 0.7  0.1 0.5 0.7  0 0.5 0.7  0.2 0.5 0.7  0.3 0.5 0.7  0.4 0.5 0.7  0.5 0.5 0.7  0.6 0.5 0.7  0.7 0.5 0.7  0.8 0.5 0.7  0.9 0.5 0.7  1 0.5 0.7  0.1 0.6 0.7  0 0.6 0.7  0.2 0.6 0.7  0.3 0.6 0.7  0.4 0.6 0.7  0.5 0.6 0.7  0.6 0.6 0.7  0.7 0.6 0.7  0.8 0.6 0.7  0.9 0.6 0.7  1 0.6 0.7  0.1 0.7 0.7  0 0.7 0.7  0.2 0.7 0.7  0.3 0.7 0.7  0.4 0.7 0.7  0.5 0.7 0.7  0.6 0.7 0.7  0.7 0.7 0.7  0.8 0.7 0.7  0.9 0.7 0.7  1 0.7 0.7  0.1 0.8 0.7  0 0.8 0.7  0.2 0.8 0.7  0.3 0.8 0.7  0.4 0.8 0.7  0.5 0.8 0.7  0.6 0.8 0.7  0.7 0.8 0.7  0.8 0.8 0.7  0.9 0.8 0.7  1 0.8 0.7  0.1 0.3 0.8  0.1 0.2 0.8  0 0.2 0.8  0 0.3 0.8  0.2 0.3 0.8  0.2 0.2 0.8  0.3 0.3 0.8  0.3 0.2 0.8  0.4 0.3 0.8  0.4 0.2 0.8  0.5 0.3 0.8  0.5 0.2 0.8  0.6 0.3 0.8  0.6 0.2 0.8  0.7 0.3 0.8  0.7 0.2 0.8  0.8 0.3 0.8  0.8 0.2 0.8  0.9 0.3 0.8  0.9 0.2 0.8  1 0.3 0.8  1 0.2 0.8  0.1 0.4 0.8  0 0.4 0.8  0.2 0.4 0.8  0.3 0.4 0.8  0.4 0.4 0.8  0.5 0.4 0.8  0.6 0.4 0.8  0.7 0.4 0.8  0.8 0.4 0.8  0.9 0.4 0.8  1 0.4 0.8  0.1 0.5 0.8  0 0.5 0.8  0.2 0.5 0.8  0.3 0.5 0.8  0.4 0.5 0.8  0.5 0.5 0.8  0.6 0.5 0.8  0.7 0.5 0.8  0.8 0.5 0.8  0.9 0.5 0.8  1 0.5 0.8  0.1 0.6 0.8  0 0.6 0.8  0.2 0.6 0.8  0.3 0.6 0.8  0.4 0.6 0.8  0.5 0.6 0.8  0.6 0.6 0.8  0.7 0.6 0.8  0.8 0.6 0.8  0.9 0.6 0.8  1 0.6 0.8  0.1 0.7 0.8  0 0.7 0.8  0.2 0.7 0.8  0.3 0.7 0.8  0.4 0.7 0.8  0.5 0.7 0.8  0.6 0.7 0.8  0.7 0.7 0.8  0.8 0.7 0.8  0.9 0.7 0.8  1 0.7 0.8  0.1 0.8 0.8  0 0.8 0.8  0.2 0.8 0.8  0.3 0.8 0.8  0.4 0.8 0.8  </DataArray>
</Points>
<Cells>
[...]
<PointData  Vectors="f_23"> 
<DataArray  type="Float64"  Name="f_23"  NumberOfComponents="3" format="ascii">1.3761168731489814e-03 -5.1637080246938781e-05 8.2690292099625882e-05  1.2640712193208059e-03 -2.6179141506784146e-05 1.4221664799688309e-04  1.3459124343213594e-03 5.9158392716582105e-05 1.7765131220551898e-04  3.3826385550598179e-02 -2.9983717961616944e-04 -3.0401405012821833e-04  1.4019442125023215e-03 3.6384011903006991e-05 2.0834597281207818e-04  1.5168695195111844e-03 3.3917952174615298e-05 1.4235509399153728e-04  1.4533284609750971e-03 4.3394373368090194e-05 1.4954148247959249e-04  3.1857490930383543e-02 -2.5023251085156957e-04 -2.7055497526156779e-04  9.3755389787553915e-04 -1.5881899908341289e-05 2.1484928919322558e-04  1.0532070791825540e-03 8.2562845960103834e-05 2.4757927923014307e-04  3.4702480338535097e-02 -5.0935248543592304e-04 -3.0839990924233333e-04  1.1067707234922813e-03 5.2788271387269235e-05 3.1918889901101904e-04  4.7890942197476841e-04 3.6476639585317116e-05 3.0370673804201590e-04  5.9453107225261549e-04 1.2746362616040271e-04 3.2639768776753045e-04  3.4536405122509321e-02 -3.8790501999780015e-04 -6.2026084262051687e-05  6.5499897678124948e-04 1.1056922155048216e-04 4.4653741121499803e-04  -1.8271471510198393e-05 9.9977316336384952e-05 3.9232080946639982e-04  8.0797069936916602e-05 1.6602812067271835e-04 4.0010263194345698e-04  3.4197966246078813e-02 -2.4231433678214792e-04 2.5971550440065968e-04  1.4346690701767247e-04 1.8637138921317767e-04 5.7202445168154099e-04  -4.9013313993618787e-04 1.4958065819056175e-04 4.7479106268633352e-04  -4.1814766158975277e-04 1.8595963846042426e-04 4.6677985313498243e-04  3.3673010688254797e-02 -1.4770116685398573e-04 5.7253421821568064e-04  -3.6519952680807191e-04 2.5865181310996704e-04 6.8847935850702548e-04  -8.8367822072913619e-04 1.6149940113692419e-04 5.3417177297421410e-04  -8.4728459715964260e-04 1.7838515183672460e-04 5.1189964056136622e-04  3.3095489394166164e-02 -1.1871766959715143e-04 7.7299099275423579e-04  -8.2862255963080133e-04 2.8928165083583240e-04 7.8018582410852445e-04  -1.1218867745723643e-03 1.2979969245734848e-04 5.0667862604193063e-04  -1.1331794704730331e-03 1.3949524919380958e-04 4.8316614711205679e-04  3.2731534835467119e-02 -1.0389192752331190e-04 6.9706933306321875e-04  -1.1844881963477643e-03 2.4147371748677266e-04 7.8625326915444157e-04  -1.0967211759631554e-03 7.5468581750414053e-05 3.2373692974483064e-04  -1.1637419809611726e-03 8.2587840348917853e-05 3.2099993878295652e-04  3.2862481478892147e-02 -5.1867551269393046e-05 1.0295098686216063e-04  -1.3065542338217724e-03 1.3350591825373698e-04 5.5412890614727655e-04  -8.8530729409102811e-04 2.9110208448492798e-05 1.0990990336821444e-04  -9.5617317537893690e-04 3.2447182137066208e-05 1.4675032455142799e-04  3.3437235711287053e-02 1.0795256057489659e-04 -7.7618249411825081e-04  -1.1255178126194311e-03 6.3448432574497184e-05 2.0673039630690965e-04  -8.1026879111672199e-04 5.7096805020910735e-05 1.9571891954527768e-04  -8.2145355714545410e-04 3.0424493125528223e-05 1.9048008326494494e-04  3.4099269048507214e-02 -2.6126954029666726e-05 -7.5933619816921432e-04  -9.8868732831419574e-04 5.7813692902807034e-05 2.5644992204271118e-04  1.3946042062595377e-03 1.8811742801157192e-04 2.9995150385907861e-04  7.6667416211769437e-02 -1.4632116705385148e-04 -3.8197788278807558e-04  1.5185602766284818e-03 1.4001960949236358e-04 2.6058923541437493e-04  7.5101690734419801e-02 -1.3073461467891067e-03 -2.1853560041154184e-04  1.1091941329783390e-03 2.5101382230728364e-04 3.9337724488081852e-04  7.7555454408208352e-02 -2.6172382392972246e-04 -5.1370342704463784e-04  6.3422685804739821e-04 2.8734404263171151e-04 4.6554904405884191e-04  7.7436047330061764e-02 -1.8748221103612130e-04 -1.9633267219998062e-04  9.3042459942459534e-05 2.8337160341785305e-04 5.0688450939101373e-04  7.7068360280076756e-02 -7.4849273464753068e-05 1.9929757749389981e-04  -4.3333621204564264e-04 2.4491777070827616e-04 5.3456644817922224e-04  7.6555535738348099e-02 -4.5940829536541933e-05 4.8638231091365479e-04  -8.8692897102135148e-04 1.8779754075124502e-04 5.4588776828654604e-04  7.6143073234230835e-02 -9.7314545280594898e-05 5.2697252502236609e-04  -1.1918646986939466e-03 1.2834543987029490e-04 4.9445900612139326e-04  7.6168680335099215e-02 -1.1485931806175641e-04 2.1153386384066981e-04  -1.2237215330637668e-03 7.4667479688459047e-05 3.2386714746587288e-04  7.6809331054435728e-02 3.5179010281349404e-05 -5.3101486549294024e-04  -1.0028097409581162e-03 2.5839551501726155e-05 1.5584519769370006e-04  7.7770677185873674e-02 3.7423777422768606e-04 -1.3478840306459243e-03  -8.6157307744058403e-04 2.0510461303747339e-05 1.9918859405857245e-04  7.9037033409542018e-02 -2.0965964226692029e-04 -1.3643717377875601e-03  1.4965380581066332e-03 2.2685281053975453e-04 4.1887512946566587e-04  9.2398214169028228e-02 -2.3097822062776349e-04 -6.6070945847719197e-04  1.6546574889598417e-03 1.7774094747841578e-04 3.6463071846483706e-04  9.0960182377089679e-02 -1.2458329497794063e-03 -5.3571123761602865e-04  1.1665213169851222e-03 3.0625462920710574e-04 5.4736812115557440e-04  9.3289649368858488e-02 -3.4947958353531383e-05 -8.1164793437312637e-04  6.4116120788281470e-04 3.3324857125327853e-04 6.1209796914511239e-04  9.3156137931407423e-02 1.1329366239897614e-04 -4.3975862259086732e-04  5.2570198998394680e-05 2.9890200398646115e-04 6.0971056758631396e-04  9.2794145504021402e-02 2.3916802489737526e-04 9.3434647945578661e-05  -5.0145762367301652e-04 2.2182949086957057e-04 5.8047599576566610e-04  9.2252182498294547e-02 2.4962106661992496e-04 4.1604689764414450e-04  -9.5618479857099406e-04 1.3588087802768190e-04 5.4262806295590034e-04  9.1876762231246745e-02 1.6475219842425597e-04 3.7692200700976659e-04  -1.2472391329894352e-03 7.5597310859413258e-05 4.6805908172698222e-04  9.2080154297287525e-02 1.2846454611143164e-04 -4.9087080922637399e-05  -1.2677728400448966e-03 5.1434162160575375e-05 3.0583821055707553e-04  9.2964266144110352e-02 3.1788681741798993e-04 -8.0149818634751694e-04  -1.0372736851489304e-03 1.9766841875339458e-05 1.5126096141543450e-04  9.4028344940300504e-02 7.5870794781229378e-04 -1.4713188742610437e-03  -8.9242804940429653e-04 2.9478183609522936e-05 1.9498315577846638e-04  9.5165928080201675e-02 4.2780072723624052e-05 -1.6884186322444056e-03  1.6114314953472797e-03 1.9435192210194257e-04 4.7479624759205004e-04  7.7004437694994293e-02 1.3818206600863818e-04 -8.3344849202390977e-04  1.8023369496709492e-03 1.5969491241695806e-04 4.0235577320704046e-04  7.5718193476030385e-02 -4.4720372345499732e-04 -8.4304541504883791e-04  1.2188290753056832e-03 2.6300612669508816e-04 6.2352842610792871e-04  7.7977653177968148e-02 2.5085092716891792e-04 -9.9890725594606669e-04  6.3307818990582308e-04 2.7190913000179332e-04 6.8625527648546905e-04  7.7872180540328170e-02 3.7390754962885451e-04 -5.7123629202320285e-04  -8.4495426482543816e-06 2.2360758234834762e-04 6.5225443847163498e-04  7.7480423085714664e-02 4.6455580434467351e-04 1.0180660870885003e-04  -5.8824417471608408e-04 1.3829893164804874e-04 5.7447783279032086e-04  7.6829543504641454e-02 4.4931723916856643e-04 4.7741192119343405e-04  -1.0270721569300657e-03 5.1258536842530211e-05 4.8898034839807045e-04  7.6360611716142057e-02 3.5474520794085025e-04 4.1563780957064029e-04  -1.2775878166991191e-03 1.3231321313175161e-06 3.9370443644647692e-04  7.6540597669143465e-02 3.0016330171060593e-04 -1.2531821055980668e-05  -1.2786452513618236e-03 7.0710030805443346e-06 2.5467439480566996e-04  7.7412093218630171e-02 4.6511041527891431e-04 -6.5981486694696224e-04  -1.0564599847716074e-03 1.0059006581596553e-05 1.2865595320178043e-04  7.8257075351766930e-02 1.0874932538860074e-03 -1.0784099382665083e-03  -9.1858890808921994e-04 3.7916948473286843e-05 1.6629136950912908e-04  7.8848455270519258e-02 4.7934235266291331e-04 -1.4128126136213558e-03  1.7035785812005309e-03 1.3892957224649223e-04 4.2124975451143896e-04  3.4704645109181656e-02 6.8755240273856864e-04 -6.2653393426916092e-04  1.8977047680932169e-03 9.8080276160058440e-05 3.3658780391116486e-04  3.3261740554823206e-02 3.9039050909233974e-04 -9.0722565559971720e-04  1.2707137272988242e-03 1.8823166465860931e-04 5.6085561381274236e-04  3.5792629912744900e-02 4.6127966625171801e-04 -6.1960464689462277e-04  6.5596991599175126e-04 1.8048657042087592e-04 6.2570998707918240e-04  3.5553586309309798e-02 4.0918094079087531e-04 -1.7650800040132451e-04  -1.6995805275906422e-05 1.3342346040794078e-04 5.9429585075436409e-04  3.4960233631700921e-02 3.7950217117894823e-04 4.5202264132764171e-04  -6.2296061802906313e-04 6.2629469006766380e-05 5.1071114968482189e-04  3.4066199797246878e-02 3.1653591221797992e-04 7.9148546936994078e-04  -1.0649942629190310e-03 -7.7356698750101826e-06 4.1352486593991257e-04  3.3336419352804868e-02 2.3199695570534789e-04 7.3170088958913549e-04  -1.2865913491851083e-03 -4.7695694016707544e-05 3.1558979449788151e-04  3.3255619398302481e-02 1.7723848978678836e-04 3.7867137391930559e-04  -1.2507123751104160e-03 -3.7976080961899447e-05 1.9906648978172044e-04  3.3992985612763156e-02 2.2190631108450311e-04 -9.1880064589533288e-05  -1.0521903971314169e-03 -2.5848467578530938e-06 9.4474554238537135e-05  3.4452581242990304e-02 6.2332939096958672e-04 -2.7746372281523468e-04  -9.3517890944513188e-04 2.7420913495611638e-05 1.1919521871974945e-04  3.3718690189213509e-02 1.0456616783290689e-03 -6.4624953049153384e-04  1.8492744675864877e-03 8.9255360341802172e-05 1.7066349395590663e-04  2.0229080358694961e-03 6.9518153231336739e-05 2.8756817412869831e-04  1.9198335805299851e-03 1.1410213096799825e-04 1.2038614052879635e-04  2.1235894011335538e-03 9.5146965629545169e-05 2.4318898968886185e-04  1.5058537888043590e-03 1.0968358833341214e-04 2.4718405947347623e-04  1.7036619411479996e-03 1.5136182147895179e-04 4.9228717630369061e-04  9.4267714360741313e-04 8.7854796904926830e-05 3.0348803856757847e-04  1.1995843208144198e-03 1.6490113182407942e-04 6.5606712041998744e-04  2.5827995244679655e-04 3.7127634926019000e-05 3.1335847550435992e-04  5.3308550231199363e-04 1.3661994576615150e-04 7.1982271536820267e-04  -4.1255252053309824e-04 -2.0173056152629772e-05 2.7763614521151582e-04  -1.6359334378385879e-04 8.2571607372488424e-05 6.8615868758856028e-04  -9.4613649044031768e-04 -7.2348618782762137e-05 2.2876190257092386e-04  -7.5945860714295751e-04 1.1137338662390464e-05 5.9847134573917649e-04  -1.2756442798409844e-03 -1.0111546061825175e-04 1.9191027322427174e-04  -1.1814594883162955e-03 -4.7648404288191305e-05 4.9302431599086249e-04  -1.3366275224684775e-03 -8.7901609721293403e-05 1.5643160625114901e-04  -1.3739883346930387e-03 -6.0566649513230013e-05 3.7063370361898294e-04  -1.0916293107251845e-03 -4.4349341305769818e-05 1.0420168337457606e-04  -1.2637768264782470e-03 -3.1364833736224821e-05 2.2163181680347690e-04  -9.1058061206748266e-04 1.5371985239104418e-05 6.6522951208746953e-05  -1.1044738178075306e-03 2.1852243418997944e-05 1.2459146452039477e-04  7.6739431540837538e-02 -3.2679184140607280e-04 -1.8793567564520788e-04  1.5598270747410113e-03 1.8456037121637110e-04 3.1763422634006850e-04  1.6880600815750183e-03 1.6737894205209148e-04 2.1204104880329444e-04  7.5062178209083411e-02 -7.6358527383707238e-05 -1.1087627747213592e-03  7.7696144160071090e-02 -6.8942515476424148e-04 -5.2008432263502974e-05  1.2811764716680538e-03 2.4181805324768998e-04 4.9113716376520344e-04  7.7601489369341997e-02 -4.8800229612495054e-04 1.9831005150526307e-04  8.2932131979698192e-04 3.1571318026103740e-04 6.7142692297408727e-04  7.7300992893950982e-02 -2.3270041276141250e-04 5.1003892956804839e-04  3.0108575880766279e-04 3.9717745042914507e-04 8.4655683600125449e-04  7.6799747383873629e-02 -9.2687485616270356e-05 7.6128020503355798e-04  -2.5249654561420025e-04 4.9307548265685474e-04 1.0159728848791912e-03  7.6208358592902828e-02 -1.1056296384351755e-04 8.7557613669961949e-04  -8.1193454820323481e-04 5.6611493886003469e-04 1.1710912883207334e-03  7.5723405718382028e-02 -1.8442092506986210e-04 7.3212778648339355e-04  -1.3275895476507346e-03 5.1087564617949396e-04 1.2742361397608485e-03  7.5679183347163448e-02 -1.8421696527080172e-04 -8.1109240338934246e-05  -1.6233840819208718e-03 2.9659925142461104e-04 1.0661015064452010e-03  7.6337708941666887e-02 -5.7057572697133280e-05 -1.5625509096129429e-03  -1.5639251732014292e-03 1.2478240219320120e-04 3.5732569504276095e-04  7.6369262641349703e-02 4.3351758424875256e-05 -4.6310821010869536e-04  -1.5333338878452815e-03 1.0491257380256296e-04 4.5240114625707314e-04  1.4996165323590360e-01 -2.9850293228420954e-04 -4.0213597238872062e-04  1.4968094625359590e-01 -1.7804718550616433e-03 -1.6605240317364434e-03  1.5079345319679899e-01 -5.9959745034880415e-04 -3.9719909060899122e-04  1.5092983935745474e-01 -4.3467106974855331e-04 -6.3886271664829471e-05  1.5063331814565253e-01 -1.5646571833429694e-04 3.5740510240377034e-04  1.5011508782101438e-01 -1.0458280722630401e-04 4.9206684538354506e-04  1.4970979513090005e-01 -2.8120156927250009e-04 2.0788253491164964e-04  1.4978690153966717e-01 -4.5552653934240878e-04 -5.1190808065225098e-04  1.5058336906272188e-01 -3.0900535942645903e-04 -1.8206458188131018e-03  1.5171010086794770e-01 3.5890361225074824e-04 -3.3697393298540079e-03  1.5215900810691560e-01 -2.7307280137728584e-04 -2.4170743214741797e-03  1.7650556834033565e-01 -6.2484638552329837e-04 -9.0179656503715266e-04  1.7682854022783526e-01 -1.9589486899978599e-03 -2.5775961773009670e-03  1.7724390620241004e-01 -3.8314935262037718e-04 -9.2502735170581153e-04  1.7751724999776949e-01 -7.3990299578220820e-05 -4.4988129056249703e-04  1.7732488593752932e-01 2.6994013385764722e-04 3.2063338487884751e-04  1.7674591204859685e-01 3.0111961808625040e-04 4.7192998071124431e-04  1.7636398386606875e-01 5.6965827803865522e-05 -8.4058210669805345e-05  1.7670941697992645e-01 -1.2783822952610252e-04 -1.1573532384743840e-03  1.7794681473556503e-01 1.2089695706228510e-04 -2.6855338602881813e-03  1.7938402024581485e-01 1.0344746179494085e-03 -4.0972354694134390e-03  1.7966920352066526e-01 2.6710189843947874e-04 -3.6008373272406473e-03  1.5010157184197462e-01 -2.5858134396078994e-04 -1.4156325894676837e-03  1.5084212833783991e-01 -1.0185249467239597e-03 -3.2953640050558371e-03  1.5091927287849285e-01 -6.3498551865386269e-05 -1.3918133201660746e-03  1.5139235883006039e-01 2.6001025333406512e-04 -7.0674521856159021e-04  1.5126608485771947e-01 5.5241549202827511e-04 5.4064310806644289e-04  1.5051022607040826e-01 5.4775032174848458e-04 7.6256405652820180e-04  1.4998308900308979e-01 3.1818495063784335e-04 5.9189717576152434e-05  1.5033378507423109e-01 1.7076815757346254e-04 -1.1121209791845050e-03  1.5165096750055437e-01 4.4490004775421391e-04 -2.4694697211034926e-03  1.5300787699566534e-01 1.6287480237816791e-03 -3.4630390955757784e-03  1.5283428933502197e-01 1.0037262214387065e-03 -3.3301173439715770e-03  7.6932399267279739e-02 4.2272674474664966e-04 -9.7507725279586733e-04  7.7469603684526961e-02 1.0303371240082159e-04 -3.1040405017120588e-03  7.7854416406420532e-02 2.8267507084312436e-04 -8.5377871927461624e-04  7.8202285939242264e-02 4.0845313427518627e-04 -1.1125766504727647e-04  7.7858474143420467e-02 5.0519756350826293e-04 1.2491329414345280e-03  7.6731833863417559e-02 4.2883116460379063e-04 1.5447693733707242e-03  7.5820055309861703e-02 2.2792954724307551e-04 9.3350521040334747e-04  7.5787300412135092e-02 9.6169301742260539e-05 -3.6701306259217551e-05  7.6896742262670431e-02 1.9128449379698492e-04 -1.0426076900265553e-03  7.7858445437065937e-02 9.7118244961587742e-04 -1.6303521428274342e-03  7.6429119732655593e-02 1.7166659354922200e-03 -1.8485781623340388e-03  2.5080910681403701e-03 8.5335808483194762e-05 5.1201120651102230e-04  2.6274082093059804e-03 1.1512132175761087e-04 5.2260020856269719e-04  2.0521801028534382e-03 1.6033348028175116e-04 9.9952712258593343e-04  1.4257085303619049e-03 1.7938063896360873e-04 1.4096262993911462e-03  5.9149151096831744e-04 1.4256532591489345e-04 1.6271252036753965e-03  -2.5077245889949795e-04 7.6820450451161844e-05 1.6036333734074501e-03  -9.0979902901249096e-04 -3.4310604266670177e-05 1.4212210244162555e-03  -1.3440279790386653e-03 -1.4040400929671786e-04 1.1640615394105135e-03  -1.5615392183740511e-03 -1.8112011305664212e-04 8.7069157208592859e-04  -1.4696223300414727e-03 -1.3565203709840125e-04 5.3375052330743129e-04  -1.2851672026509395e-03 -3.8315964568579565e-05 3.1134706339332034e-04  9.2576529413981437e-02 -6.2749408143822794e-04 -2.1843113012595585e-04  1.7660961317303009e-03 3.3686219051184529e-04 3.2954504435223531e-04  1.9101181707227577e-03 2.9616961795276111e-04 2.2555777950588511e-04  9.0999247498490976e-02 -4.2280766673443397e-04 -1.0332400608580245e-03  9.3595900906010804e-02 -9.8476891158077594e-04 1.4214515436877955e-04  1.4839412264563026e-03 4.5239325608177351e-04 5.1774994349733762e-04  9.3543947183486784e-02 -7.0237740909755110e-04 4.3836972592975671e-04  1.0312808084418474e-03 5.4987490708760392e-04 7.0617259722092877e-04  9.3314890294961206e-02 -2.6590936782613857e-04 6.9969580441359060e-04  5.1033021232576182e-04 6.3858574992887258e-04 8.9195814900761309e-04  9.2783772790601543e-02 -4.3236708432197153e-05 8.2293242410015350e-04  -3.9939172859616525e-05 7.7008415008020324e-04 1.0885496721606831e-03  9.1981211317887390e-02 -1.5941712541497042e-04 8.1811437331687090e-04  -6.7941358004948275e-04 9.5203644013069303e-04 1.2963987942933143e-03  9.0995835669452727e-02 -5.8084018430678880e-04 8.4588150130707879e-04  -1.4797389041996099e-03 1.0453500473342442e-03 1.5326123995132032e-03  9.0291732928872812e-02 -9.1694258694971758e-04 8.3732460165615228e-04  -2.0490732933142373e-03 7.5803026569300224e-04 1.9540999452005779e-03  9.0601569673077281e-02 -1.2674241751728884e-03 -5.0413752529708121e-04  -2.1329794815514056e-03 3.1055879301090841e-04 7.9511104023364696e-04  8.9798911371069406e-02 -1.5782813925061666e-03 2.6527731833034052e-03  -2.3344799300102073e-03 2.2786114066904913e-04 6.2842811619736943e-04  1.7661168292260168e-01 -8.2229418789503666e-04 -6.6149663151380145e-04  1.7690938080265678e-01 -2.7121850056545304e-03 -1.7816195418965993e-03  1.7740613013590736e-01 -1.1463847891079726e-03 -2.2335129243256736e-04  1.7772770836750970e-01 -8.2634210630183613e-04 2.1978646370317660e-04  1.7756212111265599e-01 -1.6530735406416536e-04 6.1950213836673102e-04  1.7688898810130610e-01 -4.5335254259888052e-05 5.5230349321148172e-04  1.7608306481417357e-01 -4.6966753373714362e-04 -6.9545231248853060e-05  1.7546951261909305e-01 -1.1007190544236676e-03 -1.0040174426986848e-03  1.7553708610195626e-01 -1.4213707392624264e-03 -2.0559478581693882e-03  1.7581224592798417e-01 -7.5037692764574860e-04 -4.1161153809847742e-03  1.7453182613834456e-01 -2.0216240051134440e-03 -1.5002183595792180e-03  2.0696410682213939e-01 -1.4054487180917574e-03 -1.4384905575118778e-03  2.0840564478217630e-01 -3.1978116219008837e-03 -3.0181277776835129e-03  2.0753499571753167e-01 -9.9842308087744387e-04 -8.2893170113612386e-04  2.0831907968297100e-01 -3.5851813736770895e-04 -5.7347768804786019e-05  2.0848293483415908e-01 6.1682958024155440e-04 9.4905757194851026e-04  2.0755440345693771e-01 6.6630801812270343e-04 8.2052153337970341e-04  2.0665239011590744e-01 2.6403591495080090e-05 -3.6425998481270884e-04  2.0626544267563143e-01 -5.6314707118001127e-04 -2.0082249751601227e-03  2.0673962953388186e-01 -4.9344329891436655e-04 -3.7936142344420737e-03  2.0736969704153838e-01 7.1352286776318961e-04 -6.1108689517398833e-03  2.0581591926833182e-01 -4.9878457010792479e-04 -4.5862405081771706e-03  1.7669460958662006e-01 -9.4233014513434076e-04 -2.3324195474086506e-03  1.7909963331353759e-01 -2.1251414273370222e-03 -4.1312948163623794e-03  1.7736257909396111e-01 -5.2346867636536391e-04 -1.8737686346599655e-03  1.7861318393781733e-01 2.5783322568378797e-04 -1.7647346613473499e-04  1.7925267186746216e-01 1.2167773561553700e-03 1.9717826807796220e-03  1.7785122068149