<?xml version="1.0"?>
<VTKFile type="UnstructuredGrid"  version="0.1"  >
<UnstructuredGrid>
<Piece  NumberOfPoints="539" NumberOfCells="2160">
<Points>
<DataArray  type="Float64"  NumberOfComponents="3"  format="ascii">0 0.2 0.2  0.1 0.2 0.2  0.1 0.3 0.2  0.1 0.3 0.3  0.1 0.2 0.3  0 0.2 0.3  0 0.3 0.2  0 0.3 0.3  0.2 0.2 0.2  0.2 0.3 0.2  0.2 0.3 0.3  0.2 0.2 0.3  0.3 0.2 0.2  0.3 0.3 0.2  0.3 0.3 0.3  0.3 0.2 0.3  0.4 0.2 0.2  0.4 0.3 0.2  0.4 0.3 0.3  0.4 0.2 0.3  0.5 0.2 0.2  0.5 0.3 0.2  0.5 0.3 0.3  0.5 0.2 0.3  0.6 0.2 0.2  0.6 0.3 0.2  0.6 0.3 0.3  0.6 0.2 0.3  0.7 0.2 0.2  0.7 0.3 0.2  0.7 0.3 0.3  0.7 0.2 0.3  0.8 0.2 0.2  0.8 0.3 0.2  0.8 0.3 0.3  0.8 0.2 0.3  0.9 0.2 0.2  0.9 0.3 0.2  0.9 0.3 0.3  0.9 0.2 0.3  1 0.2 0.2  1 0.3 0.2  1 0.3 0.3  1 0.2 0.3  0.1 0.4 0.2  0.1 0.4 0.3  0 0.4 0.2  0 0.4 0.3  0.2 0.4 0.2  0.2 0.4 0.3  0.3 0.4 0.2  0.3 0.4 0.3  0.4 0.4 0.2  0.4 0.4 0.3  0.5 0.4 0.2  0.5 0.4 0.3  0.6 0.4 0.2  0.6 0.4 0.3  0.7 0.4 0.2  0.7 0.4 0.3  0.8 0.4 0.2  0.8 0.4 0.3  0.9 0.4 0.2  0.9 0.4 0.3  1 0.4 0.2  1 0.4 0.3  0.1 0.5 0.2  0.1 0.5 0.3  0 0.5 0.2  0 0.5 0.3  0.2 0.5 0.2  0.2 0.5 0.3  0.3 0.5 0.2  0.3 0.5 0.3  0.4 0.5 0.2  0.4 0.5 0.3  0.5 0.5 0.2  0.5 0.5 0.3  0.6 0.5 0.2  0.6 0.5 0.3  0.7 0.5 0.2  0.7 0.5 0.3  0.8 0.5 0.2  0.8 0.5 0.3  0.9 0.5 0.2  0.9 0.5 0.3  1 0.5 0.2  1 0.5 0.3  0.1 0.6 0.2  0.1 0.6 0.3  0 0.6 0.2  0 0.6 0.3  0.2 0.6 0.2  0.2 0.6 0.3  0.3 0.6 0.2  0.3 0.6 0.3  0.4 0.6 0.2  0.4 0.6 0.3  0.5 0.6 0.2  0.5 0.6 0.3  0.6 0.6 0.2  0.6 0.6 0.3  0.7 0.6 0.2  0.7 0.6 0.3  0.8 0.6 0.2  0.8 0.6 0.3  0.9 0.6 0.2  0.9 0.6 0.3  1 0.6 0.2  1 0.6 0.3  0.1 0.7 0.2  0.1 0.7 0.3  0 0.7 0.2  0 0.7 0.3  0.2 0.7 0.2  0.2 0.7 0.3  0.3 0.7 0.2  0.3 0.7 0.3  0.4 0.7 0.2  0.4 0.7 0.3  0.5 0.7 0.2  0.5 0.7 0.3  0.6 0.7 0.2  0.6 0.7 0.3  0.7 0.7 0.2  0.7 0.7 0.3  0.8 0.7 0.2  0.8 0.7 0.3  0.9 0.7 0.2  0.9 0.7 0.3  1 0.7 0.2  1 0.7 0.3  0.1 0.8 0.2  0.1 0.8 0.3  0 0.8 0.2  0 0.8 0.3  0.2 0.8 0.2  0.2 0.8 0.3  0.3 0.8 0.2  0.3 0.8 0.3  0.4 0.8 0.2  0.4 0.8 0.3  0.5 0.8 0.2  0.5 0.8 0.3  0.6 0.8 0.2  0.6 0.8 0.3  0.7 0.8 0.2  0.7 0.8 0.3  0.8 0.8 0.2  0.8 0.8 0.3  0.9 0.8 0.2  0.9 0.8 0.3  1 0.8 0.2  1 0.8 0.3  0.1 0.3 0.4  0.1 0.2 0.4  0 0.2 0.4  0 0.3 0.4  0.2 0.3 0.4  0.2 0.2 0.4  0.3 0.3 0.4  0.3 0.2 0.4  0.4 0.3 0.4  0.4 0.2 0.4  0.5 0.3 0.4  0.5 0.2 0.4  0.6 0.3 0.4  0.6 0.2 0.4  0.7 0.3 0.4  0.7 0.2 0.4  0.8 0.3 0.4  0.8 0.2 0.4  0.9 0.3 0.4  0.9 0.2 0.4  1 0.3 0.4  1 0.2 0.4  0.1 0.4 0.4  0 0.4 0.4  0.2 0.4 0.4  0.3 0.4 0.4  0.4 0.4 0.4  0.5 0.4 0.4  0.6 0.4 0.4  0.7 0.4 0.4  0.8 0.4 0.4  0.9 0.4 0.4  1 0.4 0.4  0.1 0.5 0.4  0 0.5 0.4  0.2 0.5 0.4  0.3 0.5 0.4  0.4 0.5 0.4  0.5 0.5 0.4  0.6 0.5 0.4  0.7 0.5 0.4  0.8 0.5 0.4  0.9 0.5 0.4  1 0.5 0.4  0.1 0.6 0.4  0 0.6 0.4  0.2 0.6 0.4  0.3 0.6 0.4  0.4 0.6 0.4  0.5 0.6 0.4  0.6 0.6 0.4  0.7 0.6 0.4  0.8 0.6 0.4  0.9 0.6 0.4  1 0.6 0.4  0.1 0.7 0.4  0 0.7 0.4  0.2 0.7 0.4  0.3 0.7 0.4  0.4 0.7 0.4  0.5 0.7 0.4  0.6 0.7 0.4  0.7 0.7 0.4  0.8 0.7 0.4  0.9 0.7 0.4  1 0.7 0.4  0.1 0.8 0.4  0 0.8 0.4  0.2 0.8 0.4  0.3 0.8 0.4  0.4 0.8 0.4  0.5 0.8 0.4  0.6 0.8 0.4  0.7 0.8 0.4  0.8 0.8 0.4  0.9 0.8 0.4  1 0.8 0.4  0.1 0.3 0.5  0.1 0.2 0.5  0 0.2 0.5  0 0.3 0.5  0.2 0.3 0.5  0.2 0.2 0.5  0.3 0.3 0.5  0.3 0.2 0.5  0.4 0.3 0.5  0.4 0.2 0.5  0.5 0.3 0.5  0.5 0.2 0.5  0.6 0.3 0.5  0.6 0.2 0.5  0.7 0.3 0.5  0.7 0.2 0.5  0.8 0.3 0.5  0.8 0.2 0.5  0.9 0.3 0.5  0.9 0.2 0.5  1 0.3 0.5  1 0.2 0.5  0.1 0.4 0.5  0 0.4 0.5  0.2 0.4 0.5  0.3 0.4 0.5  0.4 0.4 0.5  0.5 0.4 0.5  0.6 0.4 0.5  0.7 0.4 0.5  0.8 0.4 0.5  0.9 0.4 0.5  1 0.4 0.5  0.1 0.5 0.5  0 0.5 0.5  0.2 0.5 0.5  0.3 0.5 0.5  0.4 0.5 0.5  0.5 0.5 0.5  0.6 0.5 0.5  0.7 0.5 0.5  0.8 0.5 0.5  0.9 0.5 0.5  1 0.5 0.5  0.1 0.6 0.5  0 0.6 0.5  0.2 0.6 0.5  0.3 0.6 0.5  0.4 0.6 0.5  0.5 0.6 0.5  0.6 0.6 0.5  0.7 0.6 0.5  0.8 0.6 0.5  0.9 0.6 0.5  1 0.6 0.5  0.1 0.7 0.5  0 0.7 0.5  0.2 0.7 0.5  0.3 0.7 0.5  0.4 0.7 0.5  0.5 0.7 0.5  0.6 0.7 0.5  0.7 0.7 0.5  0.8 0.7 0.5  0.9 0.7 0.5  1 0.7 0.5  0.1 0.8 0.5  0 0.8 0.5  0.2 0.8 0.5  0.3 0.8 0.5  0.4 0.8 0.5  0.5 0.8 0.5  0.6 0.8 0.5  0.7 0.8 0.5  0.8 0.8 0.5  0.9 0.8 0.5  1 0.8 0.5  0.1 0.3 0.6  0.1 0.2 0.6  0 0.2 0.6  0 0.3 0.6  0.2 0.3 0.6  0.2 0.2 0.6  0.3 0.3 0.6  0.3 0.2 0.6  0.4 0.3 0.6  0.4 0.2 0.6  0.5 0.3 0.6  0.5 0.2 0.6  0.6 0.3 0.6  0.6 0.2 0.6  0.7 0.3 0.6  0.7 0.2 0.6  0.8 0.3 0.6  0.8 0.2 0.6  0.9 0.3 0.6  0.9 0.2 0.6  1 0.3 0.6  1 0.2 0.6  0.1 0.4 0.6  0 0.4 0.6  0.2 0.4 0.6  0.3 0.4 0.6  0.4 0.4 0.6  0.5 0.4 0.6  0.6 0.4 0.6  0.7 0.4 0.6  0.8 0.4 0.6  0.9 0.4 0.6  1 0.4 0.6  0.1 0.5 0.6  0 0.5 0.6  0.2 0.5 0.6  0.3 0.5 0.6  0.4 0.5 0.6  0.5 0.5 0.6  0.6 0.5 0.6  0.7 0.5 0.6  0.8 0.5 0.6  0.9 0.5 0.6  1 0.5 0.6  0.1 0.6 0.6  0 0.6 0.6  0.2 0.6 0.6  0.3 0.6 0.6  0.4 0.6 0.6  0.5 0.6 0.6  0.6 0.6 0.6  0.7 0.6 0.6  0.8 0.6 0.6  0.9 0.6 0.6  1 0.6 0.6  0.1 0.7 0.6  0 0.7 0.6  0.2 0.7 0.6  0.3 0.7 0.6  0.4 0.7 0.6  0.5 0.7 0.6  0.6 0.7 0.6  0.7 0.7 0.6  0.8 0.7 0.6  0.9 0.7 0.6  1 0.7 0.6  0.1 0.8 0.6  0 0.8 0.6  0.2 0.8 0.6  0.3 0.8 0.6  0.4 0.8 0.6  0.5 0.8 0.6  0.6 0.8 0.6  0.7 0.8 0.6  0.8 0.8 0.6  0.9 0.8 0.6  1 0.8 0.6  0.1 0.3 0.7  0.1 0.2 0.7  0 0.2 0.7  0 0.3 0.7  0.2 0.3 0.7  0.2 0.2 0.7  0.3 0.3 0.7  0.3 0.2 0.7  0.4 0.3 0.7  0.4 0.2 0.7  0.5 0.3 0.7  0.5 0.2 0.7  0.6 0.3 0.7  0.6 0.2 0.7  0.7 0.3 0.7  0.7 0.2 0.7  0.8 0.3 0.7  0.8 0.2 0.7  0.9 0.3 0.7  0.9 0.2 0.7  1 0.3 0.7  1 0.2 0.7  0.1 0.4 0.7  0 0.4 0.7  0.2 0.4 0.7  0.3 0.4 0.7  0.4 0.4 0.7  0.5 0.4 0.7  0.6 0.4 0.7  0.7 0.4 0.7  0.8 0.4 0.7  0.9 0.4 0.7  1 0.4 0.7  0.1 0.5 0.7  0 0.5 0.7  0.2 0.5 0.7  0.3 0.5 0.7  0.4 0.5 0.7  0.5 0.5 0.7  0.6 0.5 0.7  0.7 0.5 0.7  0.8 0.5 0.7  0.9 0.5 0.7  1 0.5 0.7  0.1 0.6 0.7  0 0.6 0.7  0.2 0.6 0.7  0.3 0.6 0.7  0.4 0.6 0.7  0.5 0.6 0.7  0.6 0.6 0.7  0.7 0.6 0.7  0.8 0.6 0.7  0.9 0.6 0.7  1 0.6 0.7  0.1 0.7 0.7  0 0.7 0.7  0.2 0.7 0.7  0.3 0.7 0.7  0.4 0.7 0.7  0.5 0.7 0.7  0.6 0.7 0.7  0.7 0.7 0.7  0.8 0.7 0.7  0.9 0.7 0.7  1 0.7 0.7  0.1 0.8 0.7  0 0.8 0.7  0.2 0.8 0.7  0.3 0.8 0.7  0.4 0.8 0.7  0.5 0.8 0.7  0.6 0.8 0.7  0.7 0.8 0.7  0.8 0.8 0.7  0.9 0.8 0.7  1 0.8 0.7  0.1 0.3 0.8  0.1 0.2 0.8  0 0.2 0.8  0 0.3 0.8  0.2 0.3 0.8  0.2 0.2 0.8  0.3 0.3 0.8  0.3 0.2 0.8  0.4 0.3 0.8  0.4 0.2 0.8  0.5 0.3 0.8  0.5 0.2 0.8  0.6 0.3 0.8  0.6 0.2 0.8  0.7 0.3 0.8  0.7 0.2 0.8  0.8 0.3 0.8  0.8 0.2 0.8  0.9 0.3 0.8  0.9 0.2 0.8  1 0.3 0.8  1 0.2 0.8  0.1 0.4 0.8  0 0.4 0.8  0.2 0.4 0.8  0.3 0.4 0.8  0.4 0.4 0.8  0.5 0.4 0.8  0.6 0.4 0.8  0.7 0.4 0.8  0.8 0.4 0.8  0.9 0.4 0.8  1 0.4 0.8  0.1 0.5 0.8  0 0.5 0.8  0.2 0.5 0.8  0.3 0.5 0.8  0.4 0.5 0.8  0.5 0.5 0.8  0.6 0.5 0.8  0.7 0.5 0.8  0.8 0.5 0.8  0.9 0.5 0.8  1 0.5 0.8  0.1 0.6 0.8  0 0.6 0.8  0.2 0.6 0.8  0.3 0.6 0.8  0.4 0.6 0.8  0.5 0.6 0.8  0.6 0.6 0.8  0.7 0.6 0.8  0.8 0.6 0.8  0.9 0.6 0.8  1 0.6 0.8  0.1 0.7 0.8  0 0.7 0.8  0.2 0.7 0.8  0.3 0.7 0.8  0.4 0.7 0.8  0.5 0.7 0.8  0.6 0.7 0.8  0.7 0.7 0.8  0.8 0.7 0.8  0.9 0.7 0.8  1 0.7 0.8  0.1 0.8 0.8  0 0.8 0.8  0.2 0.8 0.8  0.3 0.8 0.8  0.4 0.8 0.8  0.5 0.8 0.8  0.6 0.8 0.8  0.7 0.8 0.8  0.8 0.8 0.8  0.9 0.8 0.8  1 0.8 0.8  </DataArray>
</Points>
<Cells>
[...]
<PointData  Vectors="f_23"> 
<DataArray  type="Float64"  Name="f_23"  NumberOfComponents="3" format="ascii">7.2244532941804086e-04 1.2848986866196394e-04 4.4470840365453169e-05  6.8897530963045841e-04 1.5651896127693058e-04 5.6989746597035544e-05  7.1576359223497841e-04 1.1969984953321292e-04 4.7761925988414607e-05  5.4350989623824467e-02 8.5674965905331135e-05 1.9609227748753971e-04  7.1203916001801883e-04 1.4813826562053706e-04 6.5651705973171644e-05  7.3521404084380402e-04 1.1082673216165628e-04 4.8995892835576516e-05  7.5347678748809729e-04 9.4509000178698147e-05 3.0341897937050967e-05  5.4485655353266327e-02 5.3526932829261998e-05 2.1064606019988464e-04  6.3964436615331468e-04 2.2218448022919419e-04 8.7536634369757825e-05  6.6520250184097529e-04 1.7972059226274017e-04 7.3152985163611408e-05  5.3903255732048599e-02 3.1265047424075381e-05 2.3771786471429854e-04  6.8641446490955583e-04 2.1953220011118791e-04 1.1241673784012293e-04  5.3656554420900070e-04 2.6270702236612636e-04 1.2022303787096798e-04  5.6921454946299167e-04 2.1471419586274987e-04 1.0377886545157559e-04  5.3867388447535018e-02 -2.8248713591405493e-05 2.9359303962290829e-04  6.0950177090006018e-04 2.7633414259565272e-04 1.6860391345561564e-04  3.5572211558326599e-04 2.7620140099955247e-04 1.6490017667030412e-04  3.9986542671030658e-04 2.2776980404467376e-04 1.4392289402767104e-04  5.3731779719769189e-02 -1.0066877324341178e-04 4.2060296014050883e-04  4.6053351556976711e-04 3.1330845867685809e-04 2.4318851374631833e-04  6.6038631057174703e-05 2.5455069872391172e-04 2.2822277487336478e-04  1.2484776518431538e-04 2.1480250691679220e-04 1.9904380797762780e-04  5.3510210323103227e-02 -1.8451688933999720e-04 5.8835055516590106e-04  1.9695544827687584e-04 3.1995420182366472e-04 3.4288763482669132e-04  -3.3736667498605411e-04 1.9417672637145268e-04 2.9372579801487369e-04  -2.6641902833113442e-04 1.7248562239161600e-04 2.5545288740761715e-04  5.3278773633313237e-02 -2.6637084817723329e-04 7.1185802931349055e-04  -2.1089620653589090e-04 2.7786642652402913e-04 4.5455235189535985e-04  -7.8155297280557787e-04 1.0935238451617065e-04 2.9727435937140122e-04  -7.1415913249668888e-04 1.0643412194873329e-04 2.6257355813246597e-04  5.3243466699370016e-02 -3.2667463694838861e-04 6.0927619463103098e-04  -7.1753766763852777e-04 1.8324786821686525e-04 5.0653096965884100e-04  -1.0909003038480991e-03 3.1258923267405695e-05 1.8590241933242487e-04  -1.0562406453805072e-03 3.9611201980992855e-05 1.7159126608569953e-04  5.3809020695350818e-02 -3.5927308060979663e-04 6.4594920882038688e-06  -1.1461010517477448e-03 6.7943765973458282e-05 3.6006703247774249e-04  -1.1894554004491943e-03 1.3027709879451675e-05 6.3116005292551848e-05  -1.1817524930010045e-03 8.1864596197289181e-06 7.8831238184049962e-05  5.5280464370617878e-02 -3.0415881778429163e-04 -8.2189854216092536e-04  -1.3099086369277966e-03 2.8049218438429734e-05 1.3215163647712808e-04  -1.2261356657816743e-03 1.3908443828052590e-05 1.2020378393016944e-04  -1.1895916849031349e-03 4.2378881350481056e-07 9.9021554210277564e-05  5.7283826384666212e-02 4.2009118996941224e-05 -3.4199800568538540e-05  -1.3236611370235211e-03 -1.1655913249870202e-06 1.7433119651880864e-04  7.7561307240323605e-04 7.5481247698042109e-05 4.1138309008614789e-05  1.0058932414475745e-01 -1.1987977659461973e-04 2.5833136599495287e-04  8.2104624881348433e-04 5.8363159574108427e-05 2.6486949776936915e-05  1.0041906290143465e-01 5.5528252816259532e-05 2.5044765972131701e-04  7.0022225994884795e-04 1.1442403039460597e-04 6.6857890439032120e-05  1.0018374097710905e-01 -1.1030956526760238e-04 2.8377053863439910e-04  5.8890440804589407e-04 1.3582663847916079e-04 9.8320530483182725e-05  1.0015945378497812e-01 -1.4543499473812884e-04 2.9882444749062664e-04  4.0273175359685043e-04 1.3980714891736874e-04 1.4090667541912384e-04  1.0006137612043749e-01 -2.0758447777230641e-04 3.6772779718198902e-04  1.0879488831303275e-04 1.2647315974026002e-04 1.9694296638704122e-04  9.9935067499879279e-02 -2.8008460624836829e-04 4.2851649831994535e-04  -3.0051026151060574e-04 9.8917654534428652e-05 2.4965603273788083e-04  9.9923651134558963e-02 -3.3586055715087145e-04 3.7487655281254949e-04  -7.5998048737992488e-04 6.3990610541689663e-05 2.5106643101364718e-04  1.0027542657773503e-01 -3.3100633002964446e-04 5.4879636055213430e-05  -1.0973554333253677e-03 2.9035011510432272e-05 1.6019074256116931e-04  1.0127040803145405e-01 -2.3271875436595146e-04 -6.5898731197787212e-04  -1.1969899681428138e-03 3.4252135044438217e-06 7.5949816006209042e-05  1.0293114953911996e-01 -3.2719782535515502e-05 -1.3549948304576256e-03  -1.1793019165171486e-03 -3.8111695175898270e-06 9.4143099734674319e-05  1.0516631858206500e-01 -3.8965845498599895e-05 -4.3866982050472946e-04  8.1299816110091743e-04 4.1924763133109616e-05 4.0032279501742001e-05  1.1527865126475395e-01 -1.6161480539002410e-04 2.7062649298885557e-04  8.6379325515894363e-04 2.8233349678279170e-05 2.6951599958284693e-05  1.1512556147724577e-01 -9.7391485451815292e-06 3.0596064386773591e-04  7.2225239049677884e-04 6.5344497266864949e-05 6.4661836651704388e-05  1.1487954291265819e-01 -1.4534335682552186e-04 2.7379398978034475e-04  5.9628203251199121e-04 7.6636949750519173e-05 9.6283838294512297e-05  1.1484698793847214e-01 -1.5707685157913371e-04 2.7231536719953881e-04  3.9567712133265235e-04 7.3478847519007994e-05 1.3847726592119185e-04  1.1474049080632528e-01 -1.9326747110436811e-04 3.1159009190962096e-04  9.1020481541452403e-05 5.7387972892048618e-05 1.9169617106921022e-04  1.1463538096610738e-01 -2.3665872901916602e-04 3.2192934249237982e-04  -3.2213947905793719e-04 3.6766254485862911e-05 2.3954771927857412e-04  1.1470838760179028e-01 -2.5771043187262216e-04 1.9457155506875985e-04  -7.8082771296529086e-04 2.4742224496161991e-05 2.3863528764969913e-04  1.1522896171618294e-01 -2.1085975260139541e-04 -2.0588509275991284e-04  -1.1165829288246720e-03 2.3098087436062068e-05 1.5113562415371645e-04  1.1643433150341002e-01 -6.4319904798442717e-05 -9.3865378007923007e-04  -1.2069902186055291e-03 3.2827534751105162e-06 7.1945034104281644e-05  1.1822047570364839e-01 1.2521836719205749e-04 -1.5264067682381217e-03  -1.1838528162971620e-03 1.0393298665720351e-05 8.9943192101584751e-05  1.2049886284043577e-01 1.0090999960510636e-04 -7.4223624797828262e-04  8.3592319236658449e-04 2.3031222627038332e-05 4.0674926525509490e-05  1.0073907613121171e-01 -1.7103739434180527e-04 2.4323111493418468e-04  8.8677911432776598e-04 7.0855361495317503e-06 2.9159852893073637e-05  1.0071753601650614e-01 -4.5798470862771893e-05 3.2611933247940744e-04  7.3866658139398430e-04 3.9806326756305713e-05 6.4602276272034075e-05  1.0033391310999898e-01 -1.2898698549372630e-04 2.4250715926644429e-04  6.0116633892185346e-04 5.0099298928091938e-05 9.4530257234627213e-05  1.0028578589854932e-01 -1.1823527217488474e-04 2.3763907940963262e-04  3.8807419051064364e-04 4.8173406232031420e-05 1.3322145834784125e-04  1.0016679858293491e-01 -1.2576883308232419e-04 2.6579278975979998e-04  7.6775552934256754e-05 3.4307162101473001e-05 1.7936481553424349e-04  1.0005031801052787e-01 -1.3579660982498539e-04 2.6146835830351685e-04  -3.3152867892013624e-04 1.7554044868047349e-05 2.1827551640030588e-04  1.0011796686681985e-01 -1.2471208433828464e-04 1.2255411557430705e-04  -7.7892622246503271e-04 1.3957879490921038e-05 2.1456655664971443e-04  1.0063427372706986e-01 -5.9777352611572292e-05 -2.6896460096076017e-04  -1.1159887801090449e-03 2.8469892726821267e-05 1.3651211356305285e-04  1.0180289795811388e-01 7.9979299119428636e-05 -9.1579070952980751e-04  -1.2173339617027607e-03 9.7610955132612899e-06 6.4365581874371885e-05  1.0349697116998952e-01 1.9018672192267519e-04 -1.3848930732043758e-03  -1.2088015388648458e-03 3.2345350873838823e-05 7.8632787982506965e-05  1.0546270168014268e-01 2.0210063083592371e-04 -7.0990443744762155e-04  8.5961434433785475e-04 1.0402838286991553e-05 3.5606598377127806e-05  5.5110589430181781e-02 -1.2495063417425508e-04 2.1815942630504776e-04  9.0288177523383981e-04 1.3508363400050074e-06 2.7936977402740074e-05  5.5631884901857186e-02 2.0944262776068949e-04 3.5051027694879750e-04  7.6576795146629224e-04 2.9341985894600488e-05 5.6867417676763709e-05  5.4777096727242215e-02 -5.7938793793307588e-05 1.9299326222183095e-04  6.2349296628485520e-04 4.8006320210242071e-05 8.2724956956636603e-05  5.4770053196571425e-02 -7.9795762142424963e-06 1.9215233029185711e-04  4.0305927062183423e-04 5.6430740961216930e-05 1.1654105080266201e-04  5.4692208519471111e-02 2.8389171151346919e-05 2.1695152730782233e-04  8.6671743240242271e-05 5.2246525761932059e-05 1.5620217156294655e-04  5.4586582463252681e-02 6.4577564851048993e-05 2.1870420342625009e-04  -3.2104089705985606e-04 4.1470742431194581e-05 1.8866837635528289e-04  5.4581081036522608e-02 1.1032616098820642e-04 1.2013171377397271e-04  -7.6327065121752807e-04 3.6220043308694801e-05 1.8675031007801601e-04  5.4873119298001476e-02 1.7383989752664173e-04 -1.5728388293803402e-04  -1.1063029975964811e-03 4.3910637030252853e-05 1.2446275989162547e-04  5.5650185107440971e-02 2.6317263023611015e-04 -5.9721867616714978e-04  -1.2316704187632895e-03 3.7521601531380996e-05 5.5819993711922395e-05  5.6970271399577117e-02 3.7044671489839371e-04 -9.0534384465274463e-04  -1.2435259228521804e-03 4.3105346789385614e-05 6.1814747579907431e-05  5.8099593722467598e-02 1.9728991622047787e-04 -2.4595075822166155e-04  8.8007126216817807e-04 9.1083187127514163e-06 2.4635259984976876e-05  9.0003379387511501e-04 8.0035241089275404e-06 2.4181890013263790e-05  9.1019643310535187e-04 1.5086035274791517e-06 1.5513788388981156e-05  9.2746142269556396e-04 -1.5312685190217585e-06 1.9030450394732932e-05  8.0890533082086686e-04 3.1109002704461868e-05 3.5763892715170351e-05  8.4029318995867909e-04 1.6662743015729534e-05 4.7511669967009394e-05  6.9392261158022800e-04 5.3728973325650564e-05 4.8508802738315141e-05  7.4492513985858046e-04 3.8552553853190815e-05 7.2571677358791378e-05  5.1142680036337653e-04 6.8583121092829913e-05 5.9291681894601784e-05  5.9493412316031797e-04 5.3064151327202639e-05 1.0601712468121087e-04  2.3564129750461592e-04 7.0372738452892622e-05 7.5155459167833104e-05  3.6101837624397473e-04 5.4213873859743902e-05 1.5013134048996290e-04  -1.4314801055750732e-04 6.2418234559066761e-05 9.4588948785026141e-05  2.2861771210118590e-05 4.4423792392626671e-05 1.9836623753938343e-04  -5.9444433508585247e-04 5.3762584580677036e-05 1.0771356111805683e-04  -4.1189859971310085e-04 3.3698360603077924e-05 2.3046995447971094e-04  -1.0086924228694147e-03 4.6956172753750719e-05 9.6170286256397800e-05  -8.6760273306773681e-04 3.3591162221047268e-05 2.1261492951295206e-04  -1.2135382422801102e-03 4.2349979223842153e-05 5.5599958020522363e-05  -1.1626353603958327e-03 3.6003186229707667e-05 1.3264699177203666e-04  -1.2548195882431501e-03 4.2693174453770358e-05 4.8507226940971544e-05  -1.2530287747621297e-03 5.8293442107097004e-05 8.3675423165794859e-05  1.0067144897717237e-01 8.3645825646824336e-05 3.1178344861233210e-05  7.7091261221677154e-04 1.3935908816742492e-04 7.8547344247716764e-05  7.8934009461782055e-04 1.0478360819986474e-04 5.2852814538498169e-05  1.0038828092432539e-01 3.0879618733881981e-05 4.9557147953446920e-04  1.0038344029888789e-01 4.2712000419395665e-05 1.4337455898470223e-04  7.5752418742719299e-04 2.1627439051058955e-04 1.4520858279376431e-04  1.0039721373704703e-01 -3.3658669562313243e-05 2.6369093324068933e-04  7.0376029833570184e-04 2.8556839485267040e-04 2.3581018026672964e-04  1.0037252074459904e-01 -1.1547972794319490e-04 4.3384860429495058e-04  5.7988971304303509e-04 3.5109403101143749e-04 3.5898089780705776e-04  1.0025774996445350e-01 -2.1820201129626389e-04 6.4787562891350820e-04  3.2393882183400841e-04 4.0552967858329048e-04 5.2237787053126662e-04  1.0006261682453357e-01 -3.5298162084807595e-04 8.2908778246281356e-04  -1.2779598903372159e-04 4.1532081461446844e-04 7.2305960579333874e-04  9.9889988684129793e-02 -4.6780476192582007e-04 7.4628948448829521e-04  -7.5871468134595206e-04 3.2986308442476813e-04 9.0320754769907874e-04  1.0029234430211331e-01 -5.6923527243634960e-04 -2.7790674063811095e-05  -1.3409008919133332e-03 1.5556054547511669e-04 7.8221000979326720e-04  1.0212993069378989e-01 -6.2514364973259562e-04 -1.4342215800362318e-03  -1.6188342230909385e-03 5.8172369486023589e-05 2.6195645691557329e-04  1.0385310758775175e-01 1.7859640300459216e-05 4.7267848958048095e-04  -1.6971110157965020e-03 1.2598028223749025e-05 3.3181592316202757e-04  1.7636733676189226e-01 -1.8220734541228426e-04 4.7977762668267507e-05  1.7626203589227835e-01 1.9656139967068493e-05 5.6914037133071996e-04  1.7615557858137559e-01 -1.2726471241417012e-04 2.0145805167992516e-04  1.7611627457414519e-01 -1.7618305677292810e-04 2.8329333460070874e-04  1.7610425121003470e-01 -2.6629673762679890e-04 3.7048806800828231e-04  1.7608407168463711e-01 -3.8669774033795845e-04 4.0178264062721024e-04  1.7615313467323931e-01 -5.2432972377468366e-04 2.3314628268864790e-04  1.7657085460257341e-01 -6.0728476426226842e-04 -3.5290337741548846e-04  1.7779870337196546e-01 -5.0340977445326185e-04 -1.5940533421652688e-03  1.7995140135491039e-01 -1.1961213778546959e-04 -2.9912706942556841e-03  1.8185652773284774e-01 -2.2057818956059503e-04 -1.0814629830250238e-03  2.0072370829746183e-01 -1.9266256114956019e-04 6.9763418963456473e-05  2.0073343086111342e-01 -4.8975601037564456e-05 6.1529734200000774e-04  2.0050207493932606e-01 -1.6010064703064742e-04 2.2046429278614995e-04  2.0043800610025209e-01 -1.7690518073328198e-04 2.7430153751894913e-04  2.0040375481785902e-01 -2.3583264941516176e-04 3.1232025483505263e-04  2.0039291543575199e-01 -3.1993808818727316e-04 2.5154536653388944e-04  2.0054769616428031e-01 -4.0059617033041663e-04 -6.8628071232609567e-05  2.0119962537162409e-01 -4.0502160299961463e-04 -8.4843496503727125e-04  2.0282844396327629e-01 -2.1658201034543048e-04 -2.2438530334921484e-03  2.0530994561597016e-01 1.9255896647347870e-04 -3.5893738468597523e-03  2.0726238377691569e-01 7.2305067890015041e-05 -2.0572210963401777e-03  1.7642935165740914e-01 -1.6299308343400794e-04 4.4107152282460387e-05  1.7663122927550259e-01 -5.0758714998143134e-05 5.8454870472132692e-04  1.7617448515602940e-01 -1.1987266522104490e-04 1.8909198599719080e-04  1.7608830139480847e-01 -1.1399908270981700e-04 2.3348903399150197e-04  1.7602606309912683e-01 -1.4007330384267256e-04 2.5579773736797082e-04  1.7598048831061380e-01 -1.8401570020404475e-04 1.7788866588474211e-04  1.7610154931361635e-01 -2.1749496432428605e-04 -1.5339367256846014e-04  1.7675006292239545e-01 -1.7659754093018833e-04 -9.2090027179085468e-04  1.7837517369886241e-01 1.5945833986513062e-05 -2.2310502801975432e-03  1.8078602027614407e-01 2.8797341556530603e-04 -3.3226122024904441e-03  1.8228502471372826e-01 2.1318971584979648e-04 -2.0817274016277313e-03  1.0069638702437025e-01 -6.6446122902091235e-05 -7.1333090115130577e-06  1.0147160808771985e-01 2.5037704998718516e-04 4.9434753839598861e-04  1.0048685763027049e-01 -2.9826907701808576e-05 1.1253373989390396e-04  1.0044763744335038e-01 4.4419581456993673e-06 1.6460807524334089e-04  1.0041915457629899e-01 2.5475249022029311e-05 1.9601073507626498e-04  1.0037486514409812e-01 3.6050335904735026e-05 1.5768668001409872e-04  1.0040221619092861e-01 4.7576795045781021e-05 -6.4091997476641127e-05  1.0074815342040387e-01 8.9964155686950603e-05 -6.1248694077682664e-04  1.0181192617905577e-01 2.0464988287545623e-04 -1.4744643850032619e-03  1.0369268173816092e-01 4.2319303040834537e-04 -2.1000667775001062e-03  1.0410334793920245e-01 2.2770819363514771e-04 -9.8644603848433549e-04  9.3431859145862389e-04 5.7704964712054382e-06 2.6247243433234035e-05  9.5780088419151067e-04 7.5770994571684138e-07 2.7055624119396532e-05  8.7567514750729178e-04 1.4536427061166086e-05 6.6662071422228422e-05  7.8837770225047169e-04 3.3216149559461903e-05 1.1914913836776692e-04  6.5526977288395127e-04 4.4047697870105434e-05 1.9071831828579029e-04  4.3932912914613435e-04 4.1151492695954245e-05 2.8574450139436748e-04  1.0571876815158702e-04 2.4726618903490021e-05 3.9482940663438217e-04  -3.6239917231576816e-04 6.4698359864256114e-06 4.8248549581451331e-04  -9.0420930854887341e-04 1.3720426177924754e-06 4.8301244099210834e-04  -1.2875637852833679e-03 8.6985460534498532e-06 3.4047611231092167e-04  -1.3856052626189763e-03 4.3004408865751067e-05 2.3849294598880707e-04  1.1546294466411156e-01 6.8986541840474581e-05 4.5168504286067919e-05  8.3717685294413884e-04 1.3131674941321513e-04 7.7755782676481870e-05  8.4678971517383977e-04 9.6811852240494720e-05 4.9636372755437577e-05  1.1518756177957784e-01 2.3121024741619751e-05 4.3901970158848400e-04  1.1525734238744846e-01 3.8778589689413030e-05 7.2011015001534451e-05  8.4640975472989014e-04 2.0856642248543781e-04 1.5118151488949743e-04  1.1534192159236308e-01 -3.1870938851764328e-05 1.6570899781610817e-04  8.3091360075852232e-04 2.8851974796565506e-04 2.5291212916026521e-04  1.1538590392397771e-01 -1.0987584795679441e-04 2.8863583234393420e-04  7.5946898171717577e-04 3.8420492496569434e-04 3.9652534430510364e-04  1.1531350437220017e-01 -2.2548248195772871e-04 4.3560233465950149e-04  5.5459636796504762e-04 5.0644044861335310e-04 5.9471199507826376e-04  1.1501002692939249e-01 -4.6269295177283032e-04 5.9675969078208646e-04  7.9538221142245422e-05 6.3674577263276449e-04 8.5534059270483780e-04  1.1447446885669564e-01 -9.0549169095112587e-04 7.1727603743438413e-04  -7.7817770649676052e-04 6.7420692216232014e-04 1.1933946559859478e-03  1.1428178340462689e-01 -1.1738750038577889e-03 5.0205868603528739e-04  -1.6370444950930358e-03 4.7801462685821065e-04 1.5820711158635392e-03  1.1629330881740282e-01 -1.6914757334414350e-03 -9.6744882492604206e-04  -2.0818627376311756e-03 1.9881226349337047e-04 6.1050237085144674e-04  1.1828933674675136e-01 -1.3649345623710548e-03 2.8530971408169460e-03  -2.3378328289272486e-03 9.6162989941851967e-05 5.1747721205405240e-04  2.0084110205794720e-01 -2.0861435120214766e-04 7.5812828356586583e-05  2.0082605119586583e-01 2.1835291354814576e-05 5.1356473817514177e-04  2.0069811106991955e-01 -1.2917754054212713e-04 1.0288126397319215e-04  2.0069354083125587e-01 -1.8680138323398546e-04 1.6976363207516125e-04  2.0069043123454830e-01 -2.9727304163007745e-04 2.1302737064431631e-04  2.0061614018812948e-01 -4.7269202548327010e-04 1.5244001042701762e-04  2.0044601611498000e-01 -7.6522309867638845e-04 -1.5755913770955417e-04  2.0037727009776798e-01 -1.1606802415711035e-03 -8.8523565484013389e-04  2.0124377245282490e-01 -1.3296209254332759e-03 -2.1171281788224710e-03  2.0347406123611794e-01 -8.0619373488751670e-04 -4.4957684187399592e-03  2.0498437353724350e-01 -1.4841187113584153e-03 -8.5378641844513915e-04  2.2840263510605119e-01 -2.0053509266121031e-04 9.5891547966620207e-05  2.2852798445600522e-01 -3.1139786216796272e-05 5.6688191241303465e-04  2.2823162700058294e-01 -1.5444291480693840e-04 1.2680373376289152e-04  2.2817244167800776e-01 -1.8356300141474796e-04 1.6889009014938694e-04  2.2812365837260565e-01 -2.6819977464583456e-04 1.6071038838069989e-04  2.2802251284673450e-01 -4.0372539817733742e-04 -1.1226003468804839e-05  2.2788150449498912e-01 -5.8637699286755455e-04 -5.3997722658099558e-04  2.2796462473512361e-01 -7.4599187768214191e-04 -1.6146303659846115e-03  2.2924907179994708e-01 -6.5851399301236765e-04 -3.2754099848341218e-03  2.3203555388475972e-01 -6.5269287762338766e-05 -5.9618248313924108e-03  2.3356326445582973e-01 -5.9050455103912909e-04 -3.3728703393163203e-03  2.0083086470703693e-01 -1.3980178609123423e-04 7.0036885783729912e-05  2.0114127416069874e-01 -6.4072496313407711e-06 5.4534357401024569e-04  2.0062176690638320e-01 -1.0562711119524257e-04 1.0723113591729778e-04  2.0053289234954508e-01 -1.1155978584298915e-04 1.4086307219965036e-04  2.0044592923667645e-01 -1.6262484211226173e-04 1.2008232754196747e-04  2.0029396981599376e-01 -2.4790664150657621e-04 -6.3274879196049518e-05  2.