<?xml version="1.0"?>
<VTKFile type="UnstructuredGrid"  version="0.1"  >
<UnstructuredGrid>
<Piece  NumberOfPoints="539" NumberOfCells="2160">
<Points>
<DataArray  type="Float64"  NumberOfComponents="3"  format="ascii">0 0.2 0.2  0.1 0.2 0.2  0.1 0.3 0.2  0.1 0.3 0.3  0.1 0.2 0.3  0 0.2 0.3  0 0.3 0.2  0 0.3 0.3  0.2 0.2 0.2  0.2 0.3 0.2  0.2 0.3 0.3  0.2 0.2 0.3  0.3 0.2 0.2  0.3 0.3 0.2  0.3 0.3 0.3  0.3 0.2 0.3  0.4 0.2 0.2  0.4 0.3 0.2  0.4 0.3 0.3  0.4 0.2 0.3  0.5 0.2 0.2  0.5 0.3 0.2  0.5 0.3 0.3  0.5 0.2 0.3  0.6 0.2 0.2  0.6 0.3 0.2  0.6 0.3 0.3  0.6 0.2 0.3  0.7 0.2 0.2  0.7 0.3 0.2  0.7 0.3 0.3  0.7 0.2 0.3  0.8 0.2 0.2  0.8 0.3 0.2  0.8 0.3 0.3  0.8 0.2 0.3  0.9 0.2 0.2  0.9 0.3 0.2  0.9 0.3 0.3  0.9 0.2 0.3  1 0.2 0.2  1 0.3 0.2  1 0.3 0.3  1 0.2 0.3  0.1 0.4 0.2  0.1 0.4 0.3  0 0.4 0.2  0 0.4 0.3  0.2 0.4 0.2  0.2 0.4 0.3  0.3 0.4 0.2  0.3 0.4 0.3  0.4 0.4 0.2  0.4 0.4 0.3  0.5 0.4 0.2  0.5 0.4 0.3  0.6 0.4 0.2  0.6 0.4 0.3  0.7 0.4 0.2  0.7 0.4 0.3  0.8 0.4 0.2  0.8 0.4 0.3  0.9 0.4 0.2  0.9 0.4 0.3  1 0.4 0.2  1 0.4 0.3  0.1 0.5 0.2  0.1 0.5 0.3  0 0.5 0.2  0 0.5 0.3  0.2 0.5 0.2  0.2 0.5 0.3  0.3 0.5 0.2  0.3 0.5 0.3  0.4 0.5 0.2  0.4 0.5 0.3  0.5 0.5 0.2  0.5 0.5 0.3  0.6 0.5 0.2  0.6 0.5 0.3  0.7 0.5 0.2  0.7 0.5 0.3  0.8 0.5 0.2  0.8 0.5 0.3  0.9 0.5 0.2  0.9 0.5 0.3  1 0.5 0.2  1 0.5 0.3  0.1 0.6 0.2  0.1 0.6 0.3  0 0.6 0.2  0 0.6 0.3  0.2 0.6 0.2  0.2 0.6 0.3  0.3 0.6 0.2  0.3 0.6 0.3  0.4 0.6 0.2  0.4 0.6 0.3  0.5 0.6 0.2  0.5 0.6 0.3  0.6 0.6 0.2  0.6 0.6 0.3  0.7 0.6 0.2  0.7 0.6 0.3  0.8 0.6 0.2  0.8 0.6 0.3  0.9 0.6 0.2  0.9 0.6 0.3  1 0.6 0.2  1 0.6 0.3  0.1 0.7 0.2  0.1 0.7 0.3  0 0.7 0.2  0 0.7 0.3  0.2 0.7 0.2  0.2 0.7 0.3  0.3 0.7 0.2  0.3 0.7 0.3  0.4 0.7 0.2  0.4 0.7 0.3  0.5 0.7 0.2  0.5 0.7 0.3  0.6 0.7 0.2  0.6 0.7 0.3  0.7 0.7 0.2  0.7 0.7 0.3  0.8 0.7 0.2  0.8 0.7 0.3  0.9 0.7 0.2  0.9 0.7 0.3  1 0.7 0.2  1 0.7 0.3  0.1 0.8 0.2  0.1 0.8 0.3  0 0.8 0.2  0 0.8 0.3  0.2 0.8 0.2  0.2 0.8 0.3  0.3 0.8 0.2  0.3 0.8 0.3  0.4 0.8 0.2  0.4 0.8 0.3  0.5 0.8 0.2  0.5 0.8 0.3  0.6 0.8 0.2  0.6 0.8 0.3  0.7 0.8 0.2  0.7 0.8 0.3  0.8 0.8 0.2  0.8 0.8 0.3  0.9 0.8 0.2  0.9 0.8 0.3  1 0.8 0.2  1 0.8 0.3  0.1 0.3 0.4  0.1 0.2 0.4  0 0.2 0.4  0 0.3 0.4  0.2 0.3 0.4  0.2 0.2 0.4  0.3 0.3 0.4  0.3 0.2 0.4  0.4 0.3 0.4  0.4 0.2 0.4  0.5 0.3 0.4  0.5 0.2 0.4  0.6 0.3 0.4  0.6 0.2 0.4  0.7 0.3 0.4  0.7 0.2 0.4  0.8 0.3 0.4  0.8 0.2 0.4  0.9 0.3 0.4  0.9 0.2 0.4  1 0.3 0.4  1 0.2 0.4  0.1 0.4 0.4  0 0.4 0.4  0.2 0.4 0.4  0.3 0.4 0.4  0.4 0.4 0.4  0.5 0.4 0.4  0.6 0.4 0.4  0.7 0.4 0.4  0.8 0.4 0.4  0.9 0.4 0.4  1 0.4 0.4  0.1 0.5 0.4  0 0.5 0.4  0.2 0.5 0.4  0.3 0.5 0.4  0.4 0.5 0.4  0.5 0.5 0.4  0.6 0.5 0.4  0.7 0.5 0.4  0.8 0.5 0.4  0.9 0.5 0.4  1 0.5 0.4  0.1 0.6 0.4  0 0.6 0.4  0.2 0.6 0.4  0.3 0.6 0.4  0.4 0.6 0.4  0.5 0.6 0.4  0.6 0.6 0.4  0.7 0.6 0.4  0.8 0.6 0.4  0.9 0.6 0.4  1 0.6 0.4  0.1 0.7 0.4  0 0.7 0.4  0.2 0.7 0.4  0.3 0.7 0.4  0.4 0.7 0.4  0.5 0.7 0.4  0.6 0.7 0.4  0.7 0.7 0.4  0.8 0.7 0.4  0.9 0.7 0.4  1 0.7 0.4  0.1 0.8 0.4  0 0.8 0.4  0.2 0.8 0.4  0.3 0.8 0.4  0.4 0.8 0.4  0.5 0.8 0.4  0.6 0.8 0.4  0.7 0.8 0.4  0.8 0.8 0.4  0.9 0.8 0.4  1 0.8 0.4  0.1 0.3 0.5  0.1 0.2 0.5  0 0.2 0.5  0 0.3 0.5  0.2 0.3 0.5  0.2 0.2 0.5  0.3 0.3 0.5  0.3 0.2 0.5  0.4 0.3 0.5  0.4 0.2 0.5  0.5 0.3 0.5  0.5 0.2 0.5  0.6 0.3 0.5  0.6 0.2 0.5  0.7 0.3 0.5  0.7 0.2 0.5  0.8 0.3 0.5  0.8 0.2 0.5  0.9 0.3 0.5  0.9 0.2 0.5  1 0.3 0.5  1 0.2 0.5  0.1 0.4 0.5  0 0.4 0.5  0.2 0.4 0.5  0.3 0.4 0.5  0.4 0.4 0.5  0.5 0.4 0.5  0.6 0.4 0.5  0.7 0.4 0.5  0.8 0.4 0.5  0.9 0.4 0.5  1 0.4 0.5  0.1 0.5 0.5  0 0.5 0.5  0.2 0.5 0.5  0.3 0.5 0.5  0.4 0.5 0.5  0.5 0.5 0.5  0.6 0.5 0.5  0.7 0.5 0.5  0.8 0.5 0.5  0.9 0.5 0.5  1 0.5 0.5  0.1 0.6 0.5  0 0.6 0.5  0.2 0.6 0.5  0.3 0.6 0.5  0.4 0.6 0.5  0.5 0.6 0.5  0.6 0.6 0.5  0.7 0.6 0.5  0.8 0.6 0.5  0.9 0.6 0.5  1 0.6 0.5  0.1 0.7 0.5  0 0.7 0.5  0.2 0.7 0.5  0.3 0.7 0.5  0.4 0.7 0.5  0.5 0.7 0.5  0.6 0.7 0.5  0.7 0.7 0.5  0.8 0.7 0.5  0.9 0.7 0.5  1 0.7 0.5  0.1 0.8 0.5  0 0.8 0.5  0.2 0.8 0.5  0.3 0.8 0.5  0.4 0.8 0.5  0.5 0.8 0.5  0.6 0.8 0.5  0.7 0.8 0.5  0.8 0.8 0.5  0.9 0.8 0.5  1 0.8 0.5  0.1 0.3 0.6  0.1 0.2 0.6  0 0.2 0.6  0 0.3 0.6  0.2 0.3 0.6  0.2 0.2 0.6  0.3 0.3 0.6  0.3 0.2 0.6  0.4 0.3 0.6  0.4 0.2 0.6  0.5 0.3 0.6  0.5 0.2 0.6  0.6 0.3 0.6  0.6 0.2 0.6  0.7 0.3 0.6  0.7 0.2 0.6  0.8 0.3 0.6  0.8 0.2 0.6  0.9 0.3 0.6  0.9 0.2 0.6  1 0.3 0.6  1 0.2 0.6  0.1 0.4 0.6  0 0.4 0.6  0.2 0.4 0.6  0.3 0.4 0.6  0.4 0.4 0.6  0.5 0.4 0.6  0.6 0.4 0.6  0.7 0.4 0.6  0.8 0.4 0.6  0.9 0.4 0.6  1 0.4 0.6  0.1 0.5 0.6  0 0.5 0.6  0.2 0.5 0.6  0.3 0.5 0.6  0.4 0.5 0.6  0.5 0.5 0.6  0.6 0.5 0.6  0.7 0.5 0.6  0.8 0.5 0.6  0.9 0.5 0.6  1 0.5 0.6  0.1 0.6 0.6  0 0.6 0.6  0.2 0.6 0.6  0.3 0.6 0.6  0.4 0.6 0.6  0.5 0.6 0.6  0.6 0.6 0.6  0.7 0.6 0.6  0.8 0.6 0.6  0.9 0.6 0.6  1 0.6 0.6  0.1 0.7 0.6  0 0.7 0.6  0.2 0.7 0.6  0.3 0.7 0.6  0.4 0.7 0.6  0.5 0.7 0.6  0.6 0.7 0.6  0.7 0.7 0.6  0.8 0.7 0.6  0.9 0.7 0.6  1 0.7 0.6  0.1 0.8 0.6  0 0.8 0.6  0.2 0.8 0.6  0.3 0.8 0.6  0.4 0.8 0.6  0.5 0.8 0.6  0.6 0.8 0.6  0.7 0.8 0.6  0.8 0.8 0.6  0.9 0.8 0.6  1 0.8 0.6  0.1 0.3 0.7  0.1 0.2 0.7  0 0.2 0.7  0 0.3 0.7  0.2 0.3 0.7  0.2 0.2 0.7  0.3 0.3 0.7  0.3 0.2 0.7  0.4 0.3 0.7  0.4 0.2 0.7  0.5 0.3 0.7  0.5 0.2 0.7  0.6 0.3 0.7  0.6 0.2 0.7  0.7 0.3 0.7  0.7 0.2 0.7  0.8 0.3 0.7  0.8 0.2 0.7  0.9 0.3 0.7  0.9 0.2 0.7  1 0.3 0.7  1 0.2 0.7  0.1 0.4 0.7  0 0.4 0.7  0.2 0.4 0.7  0.3 0.4 0.7  0.4 0.4 0.7  0.5 0.4 0.7  0.6 0.4 0.7  0.7 0.4 0.7  0.8 0.4 0.7  0.9 0.4 0.7  1 0.4 0.7  0.1 0.5 0.7  0 0.5 0.7  0.2 0.5 0.7  0.3 0.5 0.7  0.4 0.5 0.7  0.5 0.5 0.7  0.6 0.5 0.7  0.7 0.5 0.7  0.8 0.5 0.7  0.9 0.5 0.7  1 0.5 0.7  0.1 0.6 0.7  0 0.6 0.7  0.2 0.6 0.7  0.3 0.6 0.7  0.4 0.6 0.7  0.5 0.6 0.7  0.6 0.6 0.7  0.7 0.6 0.7  0.8 0.6 0.7  0.9 0.6 0.7  1 0.6 0.7  0.1 0.7 0.7  0 0.7 0.7  0.2 0.7 0.7  0.3 0.7 0.7  0.4 0.7 0.7  0.5 0.7 0.7  0.6 0.7 0.7  0.7 0.7 0.7  0.8 0.7 0.7  0.9 0.7 0.7  1 0.7 0.7  0.1 0.8 0.7  0 0.8 0.7  0.2 0.8 0.7  0.3 0.8 0.7  0.4 0.8 0.7  0.5 0.8 0.7  0.6 0.8 0.7  0.7 0.8 0.7  0.8 0.8 0.7  0.9 0.8 0.7  1 0.8 0.7  0.1 0.3 0.8  0.1 0.2 0.8  0 0.2 0.8  0 0.3 0.8  0.2 0.3 0.8  0.2 0.2 0.8  0.3 0.3 0.8  0.3 0.2 0.8  0.4 0.3 0.8  0.4 0.2 0.8  0.5 0.3 0.8  0.5 0.2 0.8  0.6 0.3 0.8  0.6 0.2 0.8  0.7 0.3 0.8  0.7 0.2 0.8  0.8 0.3 0.8  0.8 0.2 0.8  0.9 0.3 0.8  0.9 0.2 0.8  1 0.3 0.8  1 0.2 0.8  0.1 0.4 0.8  0 0.4 0.8  0.2 0.4 0.8  0.3 0.4 0.8  0.4 0.4 0.8  0.5 0.4 0.8  0.6 0.4 0.8  0.7 0.4 0.8  0.8 0.4 0.8  0.9 0.4 0.8  1 0.4 0.8  0.1 0.5 0.8  0 0.5 0.8  0.2 0.5 0.8  0.3 0.5 0.8  0.4 0.5 0.8  0.5 0.5 0.8  0.6 0.5 0.8  0.7 0.5 0.8  0.8 0.5 0.8  0.9 0.5 0.8  1 0.5 0.8  0.1 0.6 0.8  0 0.6 0.8  0.2 0.6 0.8  0.3 0.6 0.8  0.4 0.6 0.8  0.5 0.6 0.8  0.6 0.6 0.8  0.7 0.6 0.8  0.8 0.6 0.8  0.9 0.6 0.8  1 0.6 0.8  0.1 0.7 0.8  0 0.7 0.8  0.2 0.7 0.8  0.3 0.7 0.8  0.4 0.7 0.8  0.5 0.7 0.8  0.6 0.7 0.8  0.7 0.7 0.8  0.8 0.7 0.8  0.9 0.7 0.8  1 0.7 0.8  0.1 0.8 0.8  0 0.8 0.8  0.2 0.8 0.8  0.3 0.8 0.8  0.4 0.8 0.8  0.5 0.8 0.8  0.6 0.8 0.8  0.7 0.8 0.8  0.8 0.8 0.8  0.9 0.8 0.8  1 0.8 0.8  </DataArray>
</Points>
<Cells>
[...]
<PointData  Vectors="f_23"> 
<DataArray  type="Float64"  Name="f_23"  NumberOfComponents="3" format="ascii">3.4978195371885505e-04 1.2402298039755329e-04 1.3386653633503325e-04  3.5386309163087850e-04 1.5936456982454451e-04 1.6597566727925701e-04  3.6965350285796355e-04 1.3161656179295640e-04 1.4804617851171999e-04  4.2691484290764414e-02 6.6012704227246075e-05 7.3124668551198207e-05  3.8403691085904578e-04 1.5377962206618764e-04 1.5336039830129972e-04  3.8417051246366631e-04 1.1545132652763111e-04 1.1025160057459354e-04  3.7504925541370702e-04 1.0174342424630466e-04 1.1797513877993556e-04  4.2863331885519898e-02 2.9854334907114461e-05 1.7309684483201265e-05  3.8363658298699036e-04 2.3086429223577017e-04 2.2915947827932507e-04  3.9851795614074073e-04 1.9914662670150493e-04 2.1158082209580650e-04  4.2326322241899909e-02 8.0144349305498524e-06 1.8488410698408854e-04  4.2481657701508730e-04 2.3437555791242984e-04 2.3765466361475444e-04  3.6230673116128197e-04 2.8987310555823425e-04 2.7704953351338128e-04  3.8187170610693924e-04 2.4932932515875264e-04 2.6078952091290438e-04  4.2302177832940158e-02 -4.7697655993776871e-05 2.4145196543027940e-04  4.2329823458251868e-04 3.1190135288548305e-04 3.1749508159946226e-04  2.7757707569256554e-04 3.2862353255630982e-04 3.2269484225199097e-04  3.0445749681818712e-04 2.8113777396543155e-04 3.0482945044424398e-04  4.2219833464113503e-02 -1.2215086513040792e-04 3.4756066622079496e-04  3.6162604084032812e-04 3.7835345765958368e-04 4.0453596614298812e-04  1.0174690982280825e-04 3.2964403648092947e-04 3.7398112922775833e-04  1.3626561582874832e-04 2.8519846970490189e-04 3.5083393269655562e-04  4.2096158932980715e-02 -2.1172863357847045e-04 4.8732642289527907e-04  2.0106140288170030e-04 4.1464920031326230e-04 5.0380220109832292e-04  -1.7258283628882894e-04 2.7663148241388933e-04 4.1669929807940320e-04  -1.3466174608649524e-04 2.5012278345783623e-04 3.8486443096522695e-04  4.2012593387770296e-02 -3.0313774997009957e-04 5.7944942801775438e-04  -8.8028398918799068e-05 3.8606776366284929e-04 6.0099763017921722e-04  -4.8280961830780259e-04 1.7804414544010026e-04 3.8716796332368065e-04  -4.5464872007821785e-04 1.7445986953945871e-04 3.5660466950981315e-04  4.2175030866889660e-02 -3.7572274234965103e-04 4.4025507824652386e-04  -4.6754448617247838e-04 2.7536912559533320e-04 6.2588037990487274e-04  -6.7489924708280112e-04 7.1843502630226024e-05 2.3075470691739540e-04  -6.7534534596284728e-04 8.2878864936553208e-05 2.2004357380558422e-04  4.2959942190475310e-02 -4.3675659672344654e-04 -2.1564436718439132e-04  -7.7626609768891540e-04 1.2328954501187952e-04 4.3221205025357519e-04  -6.9463008161866604e-04 2.9107639521671863e-05 7.7363804407779954e-05  -7.1382886670492453e-04 2.5885292119827507e-05 1.0064045106336781e-04  4.4654802281032115e-02 -4.5650153484101035e-04 -1.1804447451645543e-03  -8.4880351162335552e-04 5.6290238691210736e-05 1.5641996437807437e-04  -7.2798126493779267e-04 4.5958068724671092e-05 1.4643732709767826e-04  -6.9515932197713288e-04 2.2626851098415282e-05 1.1827953113638013e-04  4.6907269975525322e-02 -1.9574829048377059e-04 -6.6055404763699812e-04  -8.3929325927703958e-04 2.5064892271563360e-05 2.0516900860153054e-04  4.3859702334301712e-04 1.0342934337538684e-04 1.3918666348786149e-04  8.8372211818624744e-02 -9.0152557603826827e-05 9.8335901571569014e-05  4.5104985995978434e-04 8.1695042567196671e-05 1.1025995813305268e-04  8.8275588274008041e-02 -2.6298450665499514e-06 -2.7406188848586625e-05  4.4428324381680509e-04 1.5608562080819468e-04 2.0314854036371219e-04  8.8019251655399949e-02 -1.1231754738856456e-04 2.1525252716902719e-04  4.1323379485559019e-04 1.8949704168199673e-04 2.5426331882425607e-04  8.7993345183129998e-02 -1.6165461666588164e-04 2.3787625960551120e-04  3.1900576054388967e-04 2.0350529864779300e-04 3.0274632953006063e-04  8.7907667149238020e-02 -2.4064321023166351e-04 2.8947400363531418e-04  1.2750017145475386e-04 1.9675601480300043e-04 3.5250257439285227e-04  8.7830427231549990e-02 -3.3515246560606197e-04 3.2564308502501413e-04  -1.7230907688797151e-04 1.6935484934628463e-04 3.8473238982345015e-04  8.7923875198873486e-02 -4.2215418546440490e-04 2.3641199957725174e-04  -5.1735289600177549e-04 1.2443353778863764e-04 3.4992070122502437e-04  8.8461568778282804e-02 -4.6504583663713607e-04 -1.4088672654305188e-04  -7.4108068942971370e-04 6.7943249491354954e-05 2.0966569170517805e-04  8.9736638052473103e-02 -4.3907002406986173e-04 -9.6933035277856593e-04  -7.5749039104008366e-04 1.9231244154644892e-05 9.8079851068293375e-05  9.1793648615062062e-02 -3.3360950460717550e-04 -1.9483141716540508e-03  -7.1014978706033388e-04 1.3369614438032911e-05 1.1001938988849680e-04  9.4500202182667151e-02 -3.7494375342702138e-04 -1.3877397906499759e-03  4.9349910944883021e-04 7.8681803536337770e-05 1.3039805517050924e-04  1.0416302098535671e-01 -1.2867297880521668e-04 1.2632728136044045e-04  5.1408937911467034e-04 6.0191567320030655e-05 1.0175966783320479e-04  1.0409806139177656e-01 -4.0962503911771060e-05 2.9944009064565203e-05  4.7839172972026050e-04 1.2035235348041725e-04 1.9101773095049613e-04  1.0379991052665324e-01 -1.1647954604279217e-04 2.2656613561699299e-04  4.2913591344896157e-04 1.4264387991821058e-04 2.4216345931842210e-04  1.0376277424277335e-01 -1.4291501098102631e-04 2.3282641887502326e-04  3.1731132938304062e-04 1.4481572644045888e-04 2.9164223680166584e-04  1.0365804522772412e-01 -1.9788782868054202e-04 2.5197958284756431e-04  1.1085188533258425e-04 1.2937105194227858e-04 3.4107697580801181e-04  1.0358381388140205e-01 -2.6473674649861526e-04 2.3006825707797373e-04  -1.9924435587915344e-04 1.0494392836154468e-04 3.7207566160815854e-04  1.0374254440998491e-01 -3.1947068772510102e-04 5.0681520552865649e-05  -5.5213735178850161e-04 8.3808814420597349e-05 3.3810071162397012e-04  1.0443532694848610e-01 -3.2506731044997823e-04 -4.4089308899186751e-04  -7.8188015114673411e-04 6.4874312270010742e-05 2.0148835777446779e-04  1.0593058275602271e-01 -2.5198958756331158e-04 -1.3379933982865088e-03  -7.9234662552213299e-04 1.9702969240056557e-05 9.3716805000288239e-05  1.0818245458628337e-01 -1.3525445528626958e-04 -2.2762124250347696e-03  -7.3925419348392155e-04 2.7436212100099687e-05 1.0533160797733286e-04  1.1101156678374256e-01 -1.6848853635921087e-04 -1.8414346821633478e-03  5.3884696384431116e-04 6.4287764916902743e-05 1.2030307191522985e-04  8.8543491013465536e-02 -1.2379425774199608e-04 1.2916963278090748e-04  5.6396626620815204e-04 3.9282976160207430e-05 9.2698045334248439e-05  8.8623271764183040e-02 -3.2818684983839801e-05 9.0955878773849139e-05  5.0801745842671785e-04 1.0467333304254685e-04 1.7768269663210264e-04  8.8177721317450955e-02 -7.4192586111416180e-05 2.1092377285757380e-04  4.4067245777605846e-04 1.2868316254486146e-04 2.2715429236756497e-04  8.8141172614892446e-02 -7.3200678490885061e-05 2.1020067450214274e-04  3.1083102073269092e-04 1.3278641217821417e-04 2.7450324518758437e-04  8.8036346127210660e-02 -9.2394956080625717e-05 2.1731492392816312e-04  9.3471456258000551e-05 1.1871057129523594e-04 3.1918810512231009e-04  8.7954938783152595e-02 -1.1607618063223345e-04 1.8022232051288992e-04  -2.1533636055350044e-04 9.6984723493269762e-05 3.4455816506797124e-04  8.8100910183706083e-02 -1.2498498686810063e-04 -1.2977045519572618e-05  -5.6257820955584099e-04 8.4759829941184102e-05 3.1177790875930322e-04  8.8770818042476538e-02 -9.2456777013163593e-05 -5.0180864325182005e-04  -8.0322287919855275e-04 8.4052447413983860e-05 1.8936789812790312e-04  9.0207475219431038e-02 6.6810877292797523e-06 -1.3131632958476196e-03  -8.2925465629255619e-04 3.2155309158585538e-05 8.7014898818612519e-05  9.2357955580257250e-02 9.4939540763278008e-05 -2.1245118421411172e-03  -7.9545857083500543e-04 5.6342995760371880e-05 9.5779204242500034e-05  9.4846752194103573e-02 1.0965670319589621e-04 -1.7492340036880428e-03  5.8708754682705025e-04 4.9657294992135458e-05 1.0193536349370519e-04  4.3414650703610440e-02 -6.7867223141291935e-05 1.5670264500330756e-04  6.0478201485763433e-04 2.6388652748410752e-05 7.8252060478290408e-05  4.3946189185638064e-02 2.3213317917381663e-04 2.0883439074384638e-04  5.4952732943528305e-04 9.8883873493662148e-05 1.5423804986881864e-04  4.3153156925919214e-02 1.9874342166695967e-06 1.8567921699784280e-04  4.7006697555174062e-04 1.3731045406872500e-04 2.0091660599383279e-04  4.3192121142650260e-02 4.9006972732563001e-05 1.8885432333612742e-04  3.2651265138504545e-04 1.5667070179991303e-04 2.4522786196179614e-04  4.3158409731698613e-02 8.5390827043005295e-05 2.0136122457137902e-04  9.8566335569638921e-05 1.5617240420252816e-04 2.8592198219214247e-04  4.3110351451618442e-02 1.2024900008328904e-04 1.8436004632751152e-04  -2.1390005116016903e-04 1.4274950402301336e-04 3.0853880285139178e-04  4.3186259630289194e-02 1.6089966322842722e-04 5.4434117785114704e-05  -5.6154974982876760e-04 1.2908847614500604e-04 2.8388353656076860e-04  4.3602879390331896e-02 2.1138804806730186e-04 -2.7652198901141200e-04  -8.2415183912593645e-04 1.2105262364775656e-04 1.8497680179818226e-04  4.4580836835854495e-02 2.8107736921514616e-04 -8.2459027701705702e-04  -8.8021134787631011e-04 8.3399149631835059e-05 8.2259141070202367e-05  4.6221355125701559e-02 3.7920360438073003e-04 -1.3685675002262218e-03  -8.7242809737043796e-04 7.4658550315436290e-05 8.6299823750271725e-05  4.7778125856957891e-02 2.4620022774715216e-04 -9.1359716488540095e-04  5.7616355384119597e-04 4.3220193475229323e-05 8.3030036471591815e-05  5.9745366744725389e-04 3.3534339816737528e-05 7.0465697571977094e-05  5.6053100997281941e-04 3.9676606537060083e-05 4.5601623379323997e-05  6.0779560368812125e-04 2.3499994677512854e-05 5.1567118324153904e-05  5.6785899458121987e-04 9.9308146960118247e-05 1.2309749879451279e-04  5.6252465173087707e-04 7.1845416927258465e-05 1.3190636588123958e-04  5.1108494755582447e-04 1.4745088941772302e-04 1.5731179510827863e-04  5.2959898352384184e-04 1.1865107412405446e-04 1.8205528626012984e-04  4.0095401877035541e-04 1.7777256048420200e-04 1.7924488199348311e-04  4.5181368797566853e-04 1.4848225613294164e-04 2.3261532663315269e-04  2.1187974151461557e-04 1.8707391695107296e-04 1.9748773025930267e-04  3.0064685722395161e-04 1.5671893413574366e-04 2.8617647426844431e-04  -7.0183852745099281e-05 1.7913900813974545e-04 2.1042780473353861e-04  5.4980444098527184e-05 1.4690429459324241e-04 3.3419515436834641e-04  -4.1886452558162295e-04 1.6252159674227473e-04 2.0716086386696599e-04  -2.8137216702159371e-04 1.3012445707911226e-04 3.5347394885521606e-04  -7.3180276664123621e-04 1.3719621922701108e-04 1.6672925713170328e-04  -6.3753708882482692e-04 1.1691113549484576e-04 3.0649729320415212e-04  -8.7572336776436022e-04 1.0547512263421598e-04 8.8713137859732069e-05  -8.5022056197798168e-04 9.5668296401824423e-05 1.8302331270360098e-04  -9.1130194308443270e-04 7.7250338996939536e-05 8.3716903763455427e-05  -8.9660564386722242e-04 1.0739066199580296e-04 1.1185523916010847e-04  8.8421620214177779e-02 7.8809299586831536e-05 -7.9860773073721749e-05  4.9030375758942412e-04 1.5672557826903197e-04 1.4400261911065980e-04  4.9069479804754316e-04 1.1993212075684544e-04 9.5609364316846614e-05  8.8185943792830498e-02 3.3071753819900343e-05 2.7107333243786487e-04  8.8167579796535001e-02 1.0969191853739560e-05 9.6691774423488823e-05  5.2985684819974340e-04 2.4866970035154014e-04 2.4801657364615623e-04  8.8173117407642526e-02 -7.2980737097148003e-05 2.0769295723482563e-04  5.4195137354158996e-04 3.4336859261998773e-04 3.7113582452406321e-04  8.8166415007296217e-02 -1.6897698223211605e-04 3.3304187442344431e-04  4.9490278112454056e-04 4.4383282298479751e-04 5.2051950330280058e-04  8.8113673919006069e-02 -2.8830370937652503e-04 4.7751258010890496e-04  3.2552067547096322e-04 5.3619670539653400e-04 6.9982719903754207e-04  8.8042594229845450e-02 -4.3967691936233562e-04 5.7266669102124489e-04  -2.8912158296809966e-05 5.7016386751380520e-04 8.9824807553863528e-04  8.8081165789459487e-02 -5.8329739492959107e-04 4.1269780570622159e-04  -5.4980718761961237e-04 4.6653096346518745e-04 1.0595262813661971e-03  8.8724280039912243e-02 -7.2649061407009544e-04 -4.5249178754966265e-04  -1.0218379312517528e-03 2.3480386119369327e-04 8.9881250094525752e-04  9.0674238235770782e-02 -9.1640183237005869e-04 -2.0296120219673378e-03  -1.2108236916107931e-03 9.3677189215949174e-05 2.9838519462230625e-04  9.2453320676264661e-02 -4.0470028695710600e-04 -3.4535640969341245e-04  -1.2737806784280088e-03 4.3332862238919591e-05 3.8191521789727231e-04  1.6521830570686141e-01 -1.5112623341997287e-04 -1.2972816500293399e-04  1.6516291640574493e-01 -3.5456036104185960e-05 2.4605741774056376e-04  1.6500817995736919e-01 -1.4752801270375402e-04 1.1769860192796670e-04  1.6494616880788851e-01 -2.2545229405840391e-04 1.9417880538952521e-04  1.6489746734069080e-01 -3.4819660191106163e-04 2.2718581444133574e-04  1.6486606739697393e-01 -5.0708125617164894e-04 1.7143322828422382e-04  1.6498934590347858e-01 -6.9716708012080317e-04 -1.1540119147687568e-04  1.6556522136171703e-01 -8.7425199866583171e-04 -8.4019201437710099e-04  1.6704302256443387e-01 -9.3000906255316694e-04 -2.2725236333479898e-03  1.6943703963879650e-01 -7.4362621774476693e-04 -4.0777165494393901e-03  1.7141344283869267e-01 -8.8093787504847881e-04 -2.4984881980914969e-03  1.9174827419080814e-01 -1.7585710982021620e-04 -1.0467436868658175e-04  1.9182933603963409e-01 -9.4375184405126819e-05 2.8923370569857446e-04  1.9151462028984123e-01 -1.5390301907166831e-04 1.5227270383208572e-04  1.9141895352721044e-01 -1.9703376376852607e-04 2.0320460115567753e-04  1.9132800032610339e-01 -2.8902547928172183e-04 1.8135264346761255e-04  1.9127410107504536e-01 -4.1378253144388523e-04 1.5261035741628016e-05  1.9144290640494069e-01 -5.5544809584722268e-04 -4.6789965175525298e-04  1.9221097127622000e-01 -6.6746102413431905e-04 -1.4735875690134821e-03  1.9405446141797356e-01 -6.4722408427793268e-04 -3.1976734030363788e-03  1.9681748431699383e-01 -4.1285767436847174e-04 -5.0883796487052654e-03  1.9887771747663044e-01 -5.5265020270756429e-04 -3.8807333619688507e-03  1.6525684289458556e-01 -1.3132716314865440e-04 -9.9993042523615342e-05  1.6554472838285167e-01 -5.3766760050763856e-05 2.9989928817600613e-04  1.6500425600352991e-01 -7.9694121599827768e-05 1.4071355807337930e-04  1.6490716287434024e-01 -8.8894705810502268e-05 1.7934361298137293e-04  1.6480797314658843e-01 -1.3496066792867119e-04 1.4421757691798550e-04  1.6472998063409569e-01 -2.0313162510190598e-04 -3.3841547576496058e-05  1.6485832214455168e-01 -2.7566381347915225e-04 -5.2644080914724788e-04  1.6559411424794424e-01 -3.0494277502125984e-04 -1.5425824441334147e-03  1.6740290594837054e-01 -2.2415810261732861e-04 -3.2283785363446901e-03  1.7010177916843211e-01 -5.0121895732451316e-05 -4.8447010029039235e-03  1.7174604645795197e-01 -1.4644952435533275e-04 -3.8935092902853186e-03  8.8448943867212054e-02 -2.9249039743613542e-05 -8.0654496273311471e-05  8.9209490879850084e-02 2.5530320050165095e-04 3.1431737016672154e-04  8.8288076258447923e-02 1.9152937843358558e-05 1.0163733964614926e-04  8.8286360268416186e-02 4.9299468037453307e-05 1.4999662560152382e-04  8.8275589142250269e-02 6.4590150794093307e-05 1.4780672346766596e-04  8.8249081213545480e-02 6.7460154766717597e-05 5.1549738347111076e-05  8.8318415961606778e-02 6.3505180665754854e-05 -2.6518993751780171e-04  8.8740887248142400e-02 7.7823884372469235e-05 -9.7009491524713536e-04  8.9934516896572170e-02 1.4008483632134855e-04 -2.0377201645561610e-03  9.2031170032761553e-02 3.2220785108732982e-04 -3.0566040208338803e-03  9.2622834285278066e-02 1.2413049224759717e-04 -2.1357820266245373e-03  6.7666013696732815e-04 2.3486675399013316e-05 5.8885566182963641e-05  6.8567910541381994e-04 1.7919535379718073e-05 6.1972933801105839e-05  6.3411865584125525e-04 5.5166119517578058e-05 1.4586751634380066e-04  5.9232528386396184e-04 9.7909024111130790e-05 2.3188420299799110e-04  5.2302770913183996e-04 1.2469038224457318e-04 3.3082053853941283e-04  3.8213743963531237e-04 1.2963686081158814e-04 4.4720532527582944e-04  1.2952868502152145e-04 1.1443844650279749e-04 5.6747277707700362e-04  -2.5616136067272295e-04 9.3381275302454911e-05 6.4968434764251458e-04  -7.1555114192979055e-04 7.9417561622086228e-05 6.2285701417803970e-04  -1.0253306367669504e-03 6.6267897063465808e-05 4.2842501656667763e-04  -1.0737881667924195e-03 1.0045603597250003e-04 2.8960008442171001e-04  1.0430030834541225e-01 6.9506038021712265e-05 -3.8150102753819937e-05  5.9546959335611354e-04 1.5933143948498754e-04 1.2742841308913518e-04  5.8783814173380593e-04 1.1895663982137401e-04 8.0364280062102461e-05  1.0407307755163761e-01 3.1836991920487972e-05 2.6845329813965482e-04  1.0410673724955810e-01 1.4056692455080986e-05 6.8778785518530726e-05  6.5454410665384739e-04 2.5754352682074257e-04 2.3431881197000855e-04  1.0416669213921302e-01 -6.5344501898165528e-05 1.6460859957222187e-04  7.0086197217752164e-04 3.6798732503358068e-04 3.6920099506538174e-04  1.0421341218894579e-01 -1.5941380017206276e-04 2.4473860487746272e-04  7.0191594537256062e-04 5.0307353948316218e-04 5.4381370639448770e-04  1.0417642802460227e-01 -2.9821958958360135e-04 3.0641698188813108e-04  5.7422529570443418e-04 6.6796163043058199e-04 7.6775455917481024e-04  1.0395177950698574e-01 -5.6453455201843921e-04 3.4484806217493179e-04  1.7279614365508283e-04 8.3390717611786394e-04 1.0375481890127849e-03  1.0354843938858976e-01 -1.0582101310768093e-03 3.7594236332552287e-04  -6.1372665625837976e-04 8.7583355156458243e-04 1.3579833336744497e-03  1.0357247230390217e-01 -1.5036271165939196e-03 2.1341844974759021e-04  -1.3746926473371382e-03 6.0795407054518706e-04 1.7690703212853147e-03  1.0549844786598639e-01 -2.2950466982178835e-03 -1.3119324898762342e-03  -1.7251909090139736e-03 2.4756429673850500e-04 6.9055674410531398e-04  1.0707549950769603e-01 -2.1234175503595737e-03 2.3906131603309245e-03  -1.9933569199369490e-03 1.3579819289794248e-04 5.8156487040946826e-04  1.9184437053387030e-01 -1.7315622395021758e-04 -7.7006603230712073e-05  1.9189646582019357e-01 -3.0350421410799749e-05 2.5311113878246315e-04  1.9168164276070315e-01 -1.4688068450563555e-04 5.7580728752704816e-05  1.9163991892541307e-01 -2.3762008053783976e-04 1.2373921190288536e-04  1.9157937898151681e-01 -3.8795634285145920e-04 9.9932868761831779e-05  1.9144732735225342e-01 -6.1550787637217606e-04 -8.9011118601673925e-05  1.9123631388622231e-01 -9.8998001673459885e-04 -5.8508761094711026e-04  1.9116111179475631e-01 -1.5599927317728407e-03 -1.4841776030837515e-03  1.9202506624983903e-01 -2.0990501217507396e-03 -2.7828144591062203e-03  1.9403484108907698e-01 -2.0608285781123985e-03 -5.3708844512987018e-03  1.9496332783224768e-01 -2.7772624285990204e-03 -2.0797495404449732e-03  2.2204665755734404e-01 -1.8897372648686976e-04 -7.0506442057544072e-05  2.2227093403542245e-01 -8.1387385299750965e-05 2.8674574347245041e-04  2.2184469276685309e-01 -1.5281606023192558e-04 7.8895189831215887e-05  2.2173803176267201e-01 -2.1148303287862931e-04 1.2165568015729848e-04  2.2160108539135681e-01 -3.3651265230749943e-04 3.7233717251491721e-05  2.2138668156366481e-01 -5.2689514661603094e-04 -2.8855574122139385e-04  2.2112367275186212e-01 -8.0609349469840748e-04 -1.0667319172581518e-03  2.2107750049969266e-01 -1.1679922280265190e-03 -2.4601163812674851e-03  2.2217747739577656e-01 -1.4455385079358710e-03 -4.4528914530529247e-03  2.2460848930626079e-01 -1.2136183160902675e-03 -7.6099450392119643e-03  2.2555898576405964e-01 -1.7765438017923831e-03 -5.3598489828112729e-03  1.9177236302162501e-01 -1.1951710932888132e-04 -8.5324540602397806e-05  1.9219732102816967e-01 -2.2020849223363549e-05 2.8006329736305052e-04  1.9154764703943075e-01 -7.4283011976291209e-05 6.2678013411489745e-05  1.9143179946849712e-01 -9.6306246640288226e-05 9.4688278699590396e-05  1.9127839940457161e-01 -1.7223659851221980e-04 9.8258726691455555e-07  1.9102041238603645e-01 -2.9032274105628440e-04 -3.27