<?xml version="1.0"?>
<VTKFile type="UnstructuredGrid"  version="0.1"  >
<UnstructuredGrid>
<Piece  NumberOfPoints="533" NumberOfCells="2122">
<Points>
<DataArray  type="Float64"  NumberOfComponents="3"  format="ascii">0 0.2 0.2  0.1 0.2 0.2  0.1 0.3 0.2  0.1 0.3 0.3  0.1 0.2 0.3  0 0.2 0.3  0 0.3 0.2  0 0.3 0.3  0.2 0.2 0.2  0.2 0.3 0.2  0.2 0.3 0.3  0.2 0.2 0.3  0.3 0.2 0.2  0.3 0.3 0.2  0.3 0.3 0.3  0.3 0.2 0.3  0.4 0.2 0.2  0.4 0.3 0.2  0.4 0.3 0.3  0.4 0.2 0.3  0.5 0.2 0.2  0.5 0.3 0.2  0.5 0.3 0.3  0.5 0.2 0.3  0.6 0.2 0.2  0.6 0.3 0.2  0.6 0.3 0.3  0.6 0.2 0.3  0.7 0.2 0.2  0.7 0.3 0.2  0.7 0.3 0.3  0.7 0.2 0.3  0.8 0.2 0.2  0.8 0.3 0.2  0.8 0.3 0.3  0.8 0.2 0.3  0.9 0.2 0.2  0.9 0.3 0.2  0.9 0.3 0.3  0.9 0.2 0.3  1 0.2 0.2  1 0.3 0.2  1 0.3 0.3  1 0.2 0.3  0.1 0.4 0.2  0.1 0.4 0.3  0 0.4 0.2  0 0.4 0.3  0.2 0.4 0.2  0.2 0.4 0.3  0.3 0.4 0.2  0.3 0.4 0.3  0.4 0.4 0.2  0.4 0.4 0.3  0.5 0.4 0.2  0.5 0.4 0.3  0.6 0.4 0.2  0.6 0.4 0.3  0.7 0.4 0.2  0.7 0.4 0.3  0.8 0.4 0.2  0.8 0.4 0.3  0.9 0.4 0.2  0.9 0.4 0.3  1 0.4 0.2  1 0.4 0.3  0.1 0.5 0.2  0.1 0.5 0.3  0 0.5 0.2  0 0.5 0.3  0.2 0.5 0.2  0.2 0.5 0.3  0.3 0.5 0.2  0.3 0.5 0.3  0.4 0.5 0.2  0.4 0.5 0.3  0.5 0.5 0.2  0.5 0.5 0.3  0.6 0.5 0.2  0.6 0.5 0.3  0.7 0.5 0.2  0.7 0.5 0.3  0.8 0.5 0.2  0.8 0.5 0.3  0.9 0.5 0.2  0.9 0.5 0.3  1 0.5 0.2  1 0.5 0.3  0.1 0.6 0.2  0.1 0.6 0.3  0 0.6 0.2  0 0.6 0.3  0.2 0.6 0.2  0.2 0.6 0.3  0.3 0.6 0.2  0.3 0.6 0.3  0.4 0.6 0.2  0.4 0.6 0.3  0.5 0.6 0.2  0.5 0.6 0.3  0.6 0.6 0.2  0.6 0.6 0.3  0.7 0.6 0.2  0.7 0.6 0.3  0.8 0.6 0.2  0.8 0.6 0.3  0.9 0.6 0.2  0.9 0.6 0.3  1 0.6 0.2  1 0.6 0.3  0.1 0.7 0.2  0.1 0.7 0.3  0 0.7 0.2  0 0.7 0.3  0.2 0.7 0.2  0.2 0.7 0.3  0.3 0.7 0.2  0.3 0.7 0.3  0.4 0.7 0.2  0.4 0.7 0.3  0.5 0.7 0.2  0.5 0.7 0.3  0.6 0.7 0.2  0.6 0.7 0.3  0.7 0.7 0.2  0.7 0.7 0.3  0.8 0.7 0.2  0.8 0.7 0.3  0.9 0.7 0.2  0.9 0.7 0.3  1 0.7 0.2  1 0.7 0.3  0.1 0.8 0.2  0.1 0.8 0.3  0 0.8 0.2  0 0.8 0.3  0.2 0.8 0.2  0.2 0.8 0.3  0.3 0.8 0.2  0.3 0.8 0.3  0.4 0.8 0.2  0.4 0.8 0.3  0.5 0.8 0.2  0.5 0.8 0.3  0.6 0.8 0.2  0.6 0.8 0.3  0.7 0.8 0.2  0.7 0.8 0.3  0.8 0.8 0.2  0.8 0.8 0.3  0.9 0.8 0.2  0.9 0.8 0.3  1 0.8 0.2  1 0.8 0.3  0.1 0.3 0.4  0.1 0.2 0.4  0 0.2 0.4  0 0.3 0.4  0.2 0.3 0.4  0.2 0.2 0.4  0.3 0.3 0.4  0.3 0.2 0.4  0.4 0.3 0.4  0.4 0.2 0.4  0.5 0.3 0.4  0.5 0.2 0.4  0.6 0.3 0.4  0.6 0.2 0.4  0.7 0.3 0.4  0.7 0.2 0.4  0.8 0.3 0.4  0.8 0.2 0.4  0.9 0.3 0.4  0.9 0.2 0.4  1 0.3 0.4  1 0.2 0.4  0.1 0.4 0.4  0 0.4 0.4  0.2 0.4 0.4  0.3 0.4 0.4  0.4 0.4 0.4  0.5 0.4 0.4  0.6 0.4 0.4  0.7 0.4 0.4  0.8 0.4 0.4  0.9 0.4 0.4  1 0.4 0.4  0.1 0.5 0.4  0 0.5 0.4  0.2 0.5 0.4  0.3 0.5 0.4  0.4 0.5 0.4  0.5 0.5 0.4  0.6 0.5 0.4  0.7 0.5 0.4  0.8 0.5 0.4  0.9 0.5 0.4  1 0.5 0.4  0.1 0.6 0.4  0 0.6 0.4  0.2 0.6 0.4  0.3 0.6 0.4  0.4 0.6 0.4  0.5 0.6 0.4  0.6 0.6 0.4  0.7 0.6 0.4  0.8 0.6 0.4  0.9 0.6 0.4  1 0.6 0.4  0.1 0.7 0.4  0 0.7 0.4  0.2 0.7 0.4  0.3 0.7 0.4  0.4 0.7 0.4  0.5 0.7 0.4  0.6 0.7 0.4  0.7 0.7 0.4  0.8 0.7 0.4  0.9 0.7 0.4  1 0.7 0.4  0.1 0.8 0.4  0 0.8 0.4  0.2 0.8 0.4  0.3 0.8 0.4  0.4 0.8 0.4  0.5 0.8 0.4  0.6 0.8 0.4  0.7 0.8 0.4  0.8 0.8 0.4  0.9 0.8 0.4  1 0.8 0.4  0.1 0.3 0.5  0.1 0.2 0.5  0 0.2 0.5  0 0.3 0.5  0.2 0.3 0.5  0.2 0.2 0.5  0.3 0.3 0.5  0.3 0.2 0.5  0.4 0.3 0.5  0.4 0.2 0.5  0.5 0.3 0.5  0.5 0.2 0.5  0.6 0.3 0.5  0.6 0.2 0.5  0.7 0.3 0.5  0.7 0.2 0.5  0.8 0.3 0.5  0.8 0.2 0.5  0.9 0.3 0.5  0.9 0.2 0.5  1 0.3 0.5  1 0.2 0.5  0.1 0.4 0.5  0 0.4 0.5  0.2 0.4 0.5  0.3 0.4 0.5  0.4 0.4 0.5  0.5 0.4 0.5  0.6 0.4 0.5  0.7 0.4 0.5  0.8 0.4 0.5  0.9 0.4 0.5  1 0.4 0.5  0.1 0.5 0.5  0 0.5 0.5  0.2 0.5 0.5  0.3 0.5 0.5  0.4 0.5 0.5  0.5 0.5 0.5  0.6 0.5 0.5  0.7 0.5 0.5  0.8 0.5 0.5  0.9 0.5 0.5  1 0.5 0.5  0.1 0.6 0.5  0 0.6 0.5  0.2 0.6 0.5  0.3 0.6 0.5  0.4 0.6 0.5  0.5 0.6 0.5  0.6 0.6 0.5  0.7 0.6 0.5  0.8 0.6 0.5  0.9 0.6 0.5  1 0.6 0.5  0.1 0.7 0.5  0 0.7 0.5  0.2 0.7 0.5  0.3 0.7 0.5  0.4 0.7 0.5  0.5 0.7 0.5  0.6 0.7 0.5  0.7 0.7 0.5  0.8 0.7 0.5  0.9 0.7 0.5  1 0.7 0.5  0.1 0.8 0.5  0 0.8 0.5  0.2 0.8 0.5  0.3 0.8 0.5  0.4 0.8 0.5  0.5 0.8 0.5  0.6 0.8 0.5  0.7 0.8 0.5  0.8 0.8 0.5  0.9 0.8 0.5  1 0.8 0.5  0.1 0.3 0.6  0.1 0.2 0.6  0 0.2 0.6  0 0.3 0.6  0.2 0.3 0.6  0.2 0.2 0.6  0.3 0.3 0.6  0.3 0.2 0.6  0.4 0.3 0.6  0.4 0.2 0.6  0.5 0.3 0.6  0.5 0.2 0.6  0.6 0.3 0.6  0.6 0.2 0.6  0.7 0.3 0.6  0.7 0.2 0.6  0.8 0.3 0.6  0.8 0.2 0.6  0.9 0.3 0.6  0.9 0.2 0.6  1 0.3 0.6  1 0.2 0.6  0.1 0.4 0.6  0 0.4 0.6  0.2 0.4 0.6  0.3 0.4 0.6  0.4 0.4 0.6  0.5 0.4 0.6  0.6 0.4 0.6  0.7 0.4 0.6  0.8 0.4 0.6  0.9 0.4 0.6  1 0.4 0.6  0.1 0.5 0.6  0 0.5 0.6  0.2 0.5 0.6  0.3 0.5 0.6  0.4 0.5 0.6  0.5 0.5 0.6  0.6 0.5 0.6  0.7 0.5 0.6  0.8 0.5 0.6  0.9 0.5 0.6  1 0.5 0.6  0.1 0.6 0.6  0 0.6 0.6  0.2 0.6 0.6  0.3 0.6 0.6  0.4 0.6 0.6  0.5 0.6 0.6  0.6 0.6 0.6  0.7 0.6 0.6  0.8 0.6 0.6  0.9 0.6 0.6  1 0.6 0.6  0.1 0.7 0.6  0 0.7 0.6  0.2 0.7 0.6  0.3 0.7 0.6  0.4 0.7 0.6  0.5 0.7 0.6  0.6 0.7 0.6  0.7 0.7 0.6  0.8 0.7 0.6  0.9 0.7 0.6  1 0.7 0.6  0.1 0.8 0.6  0 0.8 0.6  0.2 0.8 0.6  0.3 0.8 0.6  0.4 0.8 0.6  0.5 0.8 0.6  0.6 0.8 0.6  0.7 0.8 0.6  0.8 0.8 0.6  0.9 0.8 0.6  1 0.8 0.6  0.1 0.3 0.7  0.1 0.2 0.7  0 0.2 0.7  0 0.3 0.7  0.2 0.3 0.7  0.2 0.2 0.7  0.3 0.3 0.7  0.3 0.2 0.7  0.4 0.3 0.7  0.4 0.2 0.7  0.5 0.3 0.7  0.5 0.2 0.7  0.6 0.3 0.7  0.6 0.2 0.7  0.7 0.3 0.7  0.7 0.2 0.7  0.8 0.3 0.7  0.8 0.2 0.7  0.9 0.3 0.7  0.9 0.2 0.7  1 0.3 0.7  1 0.2 0.7  0.1 0.4 0.7  0 0.4 0.7  0.2 0.4 0.7  0.3 0.4 0.7  0.4 0.4 0.7  0.5 0.4 0.7  0.6 0.4 0.7  0.7 0.4 0.7  0.8 0.4 0.7  0.9 0.4 0.7  1 0.4 0.7  0.1 0.5 0.7  0 0.5 0.7  0.2 0.5 0.7  0.3 0.5 0.7  0.4 0.5 0.7  0.5 0.5 0.7  0.6 0.5 0.7  0.7 0.5 0.7  0.8 0.5 0.7  0.9 0.5 0.7  1 0.5 0.7  0.1 0.6 0.7  0 0.6 0.7  0.2 0.6 0.7  0.3 0.6 0.7  0.4 0.6 0.7  0.5 0.6 0.7  0.6 0.6 0.7  0.7 0.6 0.7  0.8 0.6 0.7  0.9 0.6 0.7  1 0.6 0.7  0.1 0.7 0.7  0 0.7 0.7  0.2 0.7 0.7  0.3 0.7 0.7  0.4 0.7 0.7  0.5 0.7 0.7  0.6 0.7 0.7  0.7 0.7 0.7  0.8 0.7 0.7  0.9 0.7 0.7  1 0.7 0.7  0.1 0.8 0.7  0 0.8 0.7  0.2 0.8 0.7  0.3 0.8 0.7  0.4 0.8 0.7  0.5 0.8 0.7  0.6 0.8 0.7  0.7 0.8 0.7  0.8 0.8 0.7  0.9 0.8 0.7  1 0.8 0.7  0.1 0.3 0.8  0.1 0.2 0.8  0 0.2 0.8  0 0.3 0.8  0.2 0.3 0.8  0.2 0.2 0.8  0.3 0.3 0.8  0.3 0.2 0.8  0.4 0.3 0.8  0.4 0.2 0.8  0.5 0.3 0.8  0.5 0.2 0.8  0.6 0.3 0.8  0.6 0.2 0.8  0.7 0.3 0.8  0.7 0.2 0.8  0.8 0.3 0.8  0.8 0.2 0.8  0.9 0.3 0.8  0.9 0.2 0.8  1 0.3 0.8  1 0.2 0.8  0.1 0.4 0.8  0 0.4 0.8  0.2 0.4 0.8  0.3 0.4 0.8  0.4 0.4 0.8  0.5 0.4 0.8  0.6 0.4 0.8  0.7 0.4 0.8  0.8 0.4 0.8  0.9 0.4 0.8  1 0.4 0.8  0.1 0.5 0.8  0 0.5 0.8  0.2 0.5 0.8  0.3 0.5 0.8  0.4 0.5 0.8  0.5 0.5 0.8  0.6 0.5 0.8  0.7 0.5 0.8  0.8 0.5 0.8  0.9 0.5 0.8  1 0.5 0.8  0.1 0.6 0.8  0 0.6 0.8  0.2 0.6 0.8  0.3 0.6 0.8  0.4 0.6 0.8  0.5 0.6 0.8  0.6 0.6 0.8  0.7 0.6 0.8  0.8 0.6 0.8  0.9 0.6 0.8  1 0.6 0.8  0.1 0.7 0.8  0 0.7 0.8  0.2 0.7 0.8  0.3 0.7 0.8  0.4 0.7 0.8  0.5 0.7 0.8  0.6 0.7 0.8  0.7 0.7 0.8  0.8 0.7 0.8  0.9 0.7 0.8  1 0.7 0.8  0.1 0.8 0.8  0 0.8 0.8  0.2 0.8 0.8  0.3 0.8 0.8  0.4 0.8 0.8  </DataArray>
</Points>
<Cells>
[...]
<PointData  Vectors="f_23"> 
<DataArray  type="Float64"  Name="f_23"  NumberOfComponents="3" format="ascii">1.4382985990655287e-03 1.0146479874612710e-04 1.3229213132595391e-04  1.3349787840971439e-03 7.3648497135189511e-05 1.5239672724451001e-04  1.3439844465644253e-03 8.0295468777556177e-05 1.0780442206095974e-04  1.1873174497777751e-01 4.5495757583507507e-04 6.0037422970249084e-04  1.4303846913298651e-03 4.5557189710798487e-05 2.1136749597557456e-04  1.5210218134094977e-03 2.3031648131630149e-05 1.9238135765728347e-04  1.4378124839871621e-03 1.0232249232802500e-04 4.9565714964208629e-05  1.2048496858035339e-01 3.9916215721183426e-04 5.1729318676560433e-04  1.1461531542744218e-03 7.1926553452241395e-05 2.4868754990649961e-04  1.1605275964367634e-03 9.5553691551181173e-05 1.7585712977862613e-04  1.1768323977218656e-01 6.5164409868603487e-04 7.1480078603201099e-04  1.2821202517227640e-03 3.3814755854756563e-05 3.5268398027086612e-04  8.7170639844298247e-04 1.2340199747358523e-05 3.5419202100668248e-04  9.0172192240103096e-04 5.1274979419328420e-05 2.6489012195124635e-04  1.1756965628389725e-01 5.3927843297095035e-04 6.2293044856064051e-04  1.0548623555970864e-03 -2.5957657066257034e-05 5.0263300108213389e-04  4.6155486257402049e-04 -7.5375252011398053e-05 4.7678639828189459e-04  5.2440488738983882e-04 -2.7436396833419674e-05 3.7051280922022060e-04  1.1752093341960035e-01 3.8542003688732699e-04 4.4551723728341604e-04  6.9109420879132240e-04 -1.2067807465783345e-04 6.8036632460547386e-04  -1.1169876422171109e-04 -1.5257338817814466e-04 6.0098553184235657e-04  2.7051314195853178e-08 -1.0785804059809945e-04 4.8571697236154807e-04  1.1760688658869449e-01 2.6109137099628190e-04 2.3395267751505222e-04  1.2889734947411005e-04 -2.1066350435076185e-04 8.8345415732258615e-04  -8.0032566516271295e-04 -1.8819486818321177e-04 6.6365751489103758e-04  -6.4522316110836688e-04 -1.6043824011571979e-04 5.6328706747975094e-04  1.1780993631594654e-01 1.8009704678613358e-04 2.3075416947409394e-05  -6.3343231095123608e-04 -2.5060259743255248e-04 1.0411379785409470e-03  -1.4356768067123318e-03 -1.8087267254290410e-04 5.7764766535182543e-04  -1.2774507832335037e-03 -1.7149749720237630e-04 5.2239451972402122e-04  1.1806361907719722e-01 8.3720705336797708e-05 -1.4029405102345389e-04  -1.4352046514215574e-03 -2.2262707179756996e-04 1.0044229392906603e-03  -1.7778641298828268e-03 -1.4727209909172251e-04 3.4138674074565188e-04  -1.6673668998743107e-03 -1.4524883509158532e-04 3.3246361052317370e-04  1.1830058600316554e-01 -8.2820765211062859e-05 -1.1287873818516096e-04  -1.9704386058679965e-03 -1.6835451823145003e-04 6.5836668161344274e-04  -1.8448570108188973e-03 -5.1009106515266001e-05 1.2867309432987615e-04  -1.7621693810864827e-03 -7.1056405599391630e-05 1.4082982552299361e-04  1.1846990034285929e-01 -3.3413207300420029e-04 1.2457224755141886e-04  -2.0810759973411913e-03 -7.8776956311010841e-05 2.6861691825634857e-04  -1.8025035103031890e-03 -1.1251559720125950e-04 1.8115524640497350e-04  -1.7307447054175262e-03 -1.0156357154793335e-04 1.7259913684166301e-04  1.1798814584961424e-01 -9.2508472905791406e-05 9.7803972285055986e-05  -1.9963551533090061e-03 -1.1788123779455674e-04 2.8913579315960060e-04  1.3888279145308712e-03 6.8304062877339052e-05 4.9343586251237028e-05  1.4584797592429866e-01 3.1367174386448071e-04 6.6928090473581509e-04  1.5095405868585548e-03 8.0947287871653052e-05 6.5780312790714371e-06  1.4734682660672135e-01 1.4765503611433714e-03 5.7185365329463105e-04  1.1481301615467948e-03 9.0027576175734359e-05 9.9752926742792400e-05  1.4487021006244427e-01 4.3121335047880787e-04 8.9075075797216154e-04  8.5224500397557015e-04 6.4359103310209845e-05 1.7733592911724861e-04  1.4482484132174453e-01 3.7928180161378515e-04 6.9602918657824062e-04  4.5787533302094784e-04 1.7418954646497789e-06 2.7718265852847638e-04  1.4498660048122988e-01 2.7040889268392833e-04 3.8691517218623873e-04  -5.5313420234379674e-05 -6.9444774133096162e-05 3.9268970642566703e-04  1.4531193389679181e-01 2.1972067697688472e-04 1.1163993514269785e-04  -6.6886746866140045e-04 -1.1948332625170295e-04 4.8070818764249621e-04  1.4568530967550511e-01 2.2100598110632382e-04 -6.7225916403790750e-05  -1.2695418062473858e-03 -1.3077052946675543e-04 4.6581214148077124e-04  1.4597034772722550e-01 1.6347121492799415e-04 -1.5117420094691534e-04  -1.6286923378566246e-03 -1.0800065899952228e-04 3.0808408256215099e-04  1.4617263573507591e-01 -6.8489722203406291e-05 -1.3648268520209602e-04  -1.6638462596953575e-03 -6.4212291595962262e-05 1.3551741957785890e-04  1.4642034743979818e-01 -4.4170311382170629e-04 -8.8603507291002911e-05  -1.5996246192881878e-03 -8.1188472485164121e-05 1.7416516167924396e-04  1.4568542077611585e-01 1.8483242428788191e-04 -2.5895135481292068e-04  1.4283906729929581e-03 5.4043727624771874e-05 2.8565091008910760e-05  1.5124613641382323e-01 3.8610266657663377e-04 9.8528429046585765e-04  1.5670010269186281e-03 4.5316371426138575e-05 -6.2550469761857352e-06  1.5262254937510869e-01 1.3944858681999731e-03 9.8149361559382868e-04  1.1490802076189290e-03 8.0237469973261775e-05 6.5019571610992015e-05  1.5028591393487073e-01 1.9013912648762672e-04 1.2155734726630684e-03  8.1663213571988658e-04 7.2299549360860737e-05 1.3392454490818108e-04  1.5027720273527509e-01 6.6606726340240983e-05 9.5813778827449089e-04  3.9808637667567977e-04 3.1304155108053853e-05 2.2211033052590989e-04  1.5047421966906505e-01 -4.0969388755315788e-05 4.7848233636840488e-04  -1.1117119476875914e-04 -2.3246472096852822e-05 3.2934475851820530e-04  1.5090124268130994e-01 -4.8354673550004980e-05 1.1595337140490048e-04  -6.9548043911761570e-04 -6.2003344358050805e-05 4.1555147931922006e-04  1.5134769351712796e-01 2.5163486625715051e-05 -5.2954059670695971e-05  -1.2631068450518835e-03 -6.4260260597244885e-05 4.1251058572745026e-04  1.5159583286314895e-01 5.4066610099749957e-05 -9.8390683302006094e-05  -1.6003653363989003e-03 -3.9231822016707345e-05 2.7883090685619380e-04  1.5171927651289152e-01 -1.1488993552707961e-04 -1.1924521216934462e-04  -1.6018571815011042e-03 -3.3075610636130911e-05 1.2859012958697869e-04  1.5206282503540031e-01 -5.1650628478492071e-04 -2.4353360863622211e-04  -1.5293572280013230e-03 -2.0570532093817708e-05 1.7039040853482259e-04  1.5157834336817225e-01 2.7258641939960663e-04 -2.5637095149266917e-04  1.4586637696434096e-03 1.9827238045850283e-05 4.1128942400011391e-05  1.4571105735315848e-01 1.6410497702191532e-06 1.2118293890900143e-03  1.5993901932262384e-03 -7.6737236303988893e-06 1.7006389366907812e-05  1.4690170658579768e-01 5.7096881631771377e-04 1.3557744748224191e-03  1.1653391209269534e-03 3.8306737223117530e-05 7.3445738202448536e-05  1.4464452622486437e-01 -1.1279476044557490e-04 1.4800683792635997e-03  8.0824024105384778e-04 4.8027472501373700e-05 1.3452588190230924e-04  1.4452784406479099e-01 -2.0833224437029894e-04 1.1795194127419484e-03  3.6605124642483979e-04 3.7403343376982414e-05 2.0481644121830695e-04  1.4466058775516336e-01 -2.6463990157112114e-04 5.4952623147051577e-04  -1.4624039861656633e-04 1.1493697938266098e-05 2.9223820013175698e-04  1.4510039004294081e-01 -2.1945363632352267e-04 1.1432327184676756e-04  -7.0874098678066122e-04 -7.3480374630382518e-06 3.6323797931799961e-04  1.4555574605005475e-01 -9.9459534375001765e-05 -5.4551687915747220e-05  -1.2484677273115160e-03 -2.2206732622473977e-08 3.5989620347874032e-04  1.4575153927333259e-01 2.9609488277482567e-06 -9.1397458020342362e-05  -1.5795566017162122e-03 2.5191149502283627e-05 2.4428912810097689e-04  1.4580774739203761e-01 -6.2220947776867212e-05 -1.4896494690630729e-04  -1.5863941817311192e-03 1.5449034869523363e-06 1.1706429284504001e-04  1.4629607945803505e-01 -5.8675546237583391e-04 -4.3296563967260953e-04  -1.5281422674315310e-03 3.8612343417548897e-05 1.4567584103724175e-04  1.4630656723351090e-01 1.5562756043364890e-04 -3.2062008813965441e-04  1.4866521284827045e-03 -3.1630127992754179e-05 5.6332509568929074e-05  1.1826462784956372e-01 -5.8850715155765764e-04 1.0747798421207062e-03  1.6144543331598699e-03 -3.4068839148986646e-05 4.4643619835862588e-05  1.1959470309364957e-01 -3.9739858174409206e-04 1.3973090160895893e-03  1.2074741495181126e-03 -3.2304152265886288e-05 9.8102974284548333e-05  1.1691868141925763e-01 -3.1926462191864585e-04 1.2813145274285921e-03  8.4230927852667152e-04 -1.3740433470976672e-05 1.5958604817794265e-04  1.1667543151360905e-01 -2.2413395233721002e-04 1.0190280454677771e-03  3.8727713076895637e-04 2.5234836968846994e-06 2.2176279237660126e-04  1.1670777354391718e-01 -1.6120550958767670e-04 4.5147109314769930e-04  -1.2939380581113857e-04 9.7760819217892351e-06 2.9305769510254106e-04  1.1706200948570256e-01 -7.3425947763039825e-05 6.5857607083567542e-05  -6.8542773518186163e-04 1.7866484023967128e-05 3.4915026165269924e-04  1.1743752338611958e-01 2.3997908684146741e-05 -6.9000963578775063e-05  -1.2213036487000548e-03 3.6830263733825521e-05 3.4345930391968538e-04  1.1752154351132381e-01 1.1159684480320880e-04 -8.6458394632404437e-05  -1.5681961802469987e-03 6.0674293913932636e-05 2.4140708661196189e-04  1.1730602197512122e-01 1.5838344341379427e-04 -1.6390876503428754e-04  -1.6080461118613918e-03 4.8439844823289743e-05 1.1459310905598281e-04  1.1779912505830117e-01 -1.3790359014431521e-04 -5.4240869231600821e-04  -1.5647875640371527e-03 5.4215898689240519e-05 1.1623159348721579e-04  1.1888433069644676e-01 -4.2362748201797132e-04 -3.7737276198484420e-04  1.5803076822142859e-03 -3.2946367652733052e-05 -2.1043181582314463e-05  1.6323558889923789e-03 -2.3558027147241893e-05 4.2671093298814629e-05  1.7094105580113157e-03 -7.5073717411284368e-05 1.2284314179412680e-05  1.7099289754218630e-03 -3.3619461310998899e-05 4.5231683978612769e-05  1.3344101390651377e-03 -3.3000821330041321e-05 -1.3607164839630656e-05  1.4644186834287705e-03 -5.8419904847792069e-05 9.5166849785474102e-05  9.9974246343216685e-04 -1.5588953474094011e-05 4.0458426653329987e-05  1.1501211961707258e-03 -4.7316374359527412e-05 1.7546361277539528e-04  5.6768250513790927e-04 1.1269887724358234e-05 1.0790506586273977e-04  7.3899054300760342e-04 -2.7473979501851887e-05 2.5806224932087366e-04  6.7822338112569005e-05 3.1779071899710254e-05 1.8626560564892434e-04  2.5937249975100432e-04 -1.4394637074884105e-05 3.3481280725656929e-04  -4.7351982010056107e-04 4.7537518020086844e-05 2.5185411914347268e-04  -2.6096858430686557e-04 -6.5281487976733676e-06 3.9658777464637727e-04  -1.0287262879478912e-03 6.4914338247377151e-05 2.7503356836037081e-04  -8.1698551785753908e-04 7.4297340058553167e-06 4.2227123066201233e-04  -1.4831636044326641e-03 7.2874983122857246e-05 2.3167634284881690e-04  -1.3341730100499753e-03 3.0317243601087128e-05 3.7135449489612485e-04  -1.6205596328170107e-03 7.0014230881704052e-05 1.2898254879636784e-04  -1.5910595947746257e-03 4.4790139846787176e-05 2.2851018792659629e-04  -1.6045432948582085e-03 4.9286482454418689e-05 1.2243119369623821e-04  -1.6252364363633766e-03 7.9601167070967045e-05 1.3931041121719001e-04  1.4594441378346218e-01 5.1506392907140874e-04 5.0219568380679871e-04  1.6037927914552771e-03 -2.1764673912807236e-05 2.7167640707736546e-04  1.7050954000242264e-03 -3.2804032359550674e-05 2.2160510672092587e-04  1.4756736632897605e-01 3.6897958774025671e-04 1.3618769580998123e-03  1.4490549929588697e-01 8.6700262718850086e-04 5.1718021399893923e-04  1.4520833631064909e-03 -5.5717250770813005e-05 4.6550588420931071e-04  1.4487315697273251e-01 6.9523635444703391e-04 4.3977933767159436e-04  1.2568080905760242e-03 -1.3063526132473779e-04 6.7675067935510987e-04  1.4498703172594790e-01 4.6354525908063070e-04 2.6106896402724143e-04  9.3684440639687399e-04 -2.4225337800976065e-04 9.3539067494209942e-04  1.4526266640553276e-01 3.4195825871480377e-04 4.9879224436021513e-05  3.8405288861090303e-04 -3.5968934749684516e-04 1.2685145097894143e-03  1.4567170373442742e-01 3.6389697981388877e-04 -1.9946454263207361e-04  -4.9768995946432467e-04 -4.2935419006855953e-04 1.6381444316356669e-03  1.4621437072773344e-01 3.8540948823658882e-04 -4.8133819716415056e-04  -1.6083288620964301e-03 -3.7774448773447489e-04 1.8210378973771532e-03  1.4684404085546773e-01 2.3592036652150857e-04 -5.4239401835244215e-04  -2.4545959010599367e-03 -2.3767326357864739e-04 1.3923892066744839e-03  1.4720872349089945e-01 -1.0337979461216220e-04 -1.6126814837857435e-04  -2.7091218056283098e-03 -1.0570853281963184e-04 5.6763235985637646e-04  1.4768078830572814e-01 -3.2415792258245183e-04 -1.4110163021662583e-03  -2.6490155224291943e-03 -1.1839308781623000e-04 6.0982092623157143e-04  1.8669884264291059e-01 4.7061524296753522e-04 6.5892467077710733e-04  1.8684930491218740e-01 2.0372967089972490e-03 1.9530664548167969e-03  1.8593114690055026e-01 7.2915492073909389e-04 7.1635551344928201e-04  1.8589736274931598e-01 5.9105542427415904e-04 4.7186306008250418e-04  1.8634097558261181e-01 3.5191688457747753e-04 6.4024192083311939e-05  1.8707538688771455e-01 3.4061133855769902e-04 -2.0931962347121445e-04  1.8786267172991797e-01 5.3121613936417378e-04 -3.2956092971746551e-04  1.8852925454366481e-01 6.7005783320400086e-04 -3.8572491488923842e-04  1.8906510673819341e-01 4.3740937922674277e-04 -2.9535052378567081e-04  1.8965055539913198e-01 -3.0959415971309350e-04 -6.3338317134947219e-05  1.9008341310507254e-01 2.9726561050294779e-04 -1.2652299742992711e-03  1.9553770644655488e-01 6.8783332024414175e-04 1.0999556142321186e-03  1.9506895730370244e-01 2.1101192708677719e-03 2.8903804521427721e-03  1.9493809229887793e-01 3.6681473865627046e-04 1.1474742694013236e-03  1.9487778796016908e-01 6.4396336061184412e-05 7.4377565184320128e-04  1.9537302355126820e-01 -2.2929325752710773e-04 -4.6317640532582850e-05  1.9635912608615408e-01 -1.8695999088582223e-04 -3.7935139459704264e-04  1.9734664798718524e-01 1.1365365322057432e-04 -3.1973073321349979e-04  1.9799344203713332e-01 3.4399941359514093e-04 -1.5544146793565914e-04  1.9833573130419538e-01 1.6822705034905418e-04 3.4656942423937014e-05  1.9886748491363260e-01 -6.3852732824133489e-04 6.7363703742702525e-05  1.9960208008408561e-01 2.0763842007193780e-04 -7.3246070973201891e-04  1.8678705398100867e-01 2.4053018895158328e-04 1.6083079886982671e-03  1.8588271443234611e-01 1.0810987161520918e-03 3.6552354056778409e-03  1.8608011353190909e-01 -6.6583706732699377e-05 1.6320781365932212e-03  1.8576348654994002e-01 -4.1690390916678948e-04 1.0461496916812391e-03  1.8612941480413606e-01 -6.5081681329895794e-04 -1.9099574436442780e-04  1.8719812713872824e-01 -5.3669982142277037e-04 -5.4193984980815838e-04  1.8822462547353558e-01 -2.1022096272313586e-04 -3.0928396453131196e-04  1.8876000905965165e-01 4.2099095443443985e-05 -1.4675316404236579e-05  1.8890191144937446e-01 -4.8351994368506411e-05 1.1985232771463458e-04  1.8940838601344825e-01 -9.8782031787442940e-04 -7.3239410477451354e-05  1.9053557937276150e-01 -1.6038488875896965e-04 -4.8953878369250182e-04  1.4637845856759227e-01 -4.4299877910649905e-04 1.4335824635813982e-03  1.4577029782070863e-01 -1.8118482603013357e-04 3.6154449270971926e-03  1.4528103208637452e-01 -3.5040925633117567e-04 1.5470360277874725e-03  1.4466163144809388e-01 -4.9504536771494362e-04 1.0329598318857616e-03  1.4474455832240055e-01 -5.5765692704175013e-04 -2.3274593680799231e-04  1.4562651948411168e-01 -4.1103504970785808e-04 -5.6509095189397388e-04  1.4647936732560424e-01 -1.6939653360375923e-04 -3.1498486201021389e-04  1.4681110560286689e-01 1.0379526991081678e-05 -2.5217047249262268e-05  1.4652985944903835e-01 6.4231138456879509e-05 5.8102007376982645e-05  1.4689365353644829e-01 -4.4262264988789702e-04 -2.6475207871346602e-04  1.4900754088982493e-01 -9.0741134736339348e-04 -3.1332568157416775e-04  1.7371491745610647e-03 -2.1865251974299002e-05 1.1021936717033386e-04  1.8186025389751695e-03 -2.4860264216780232e-05 1.1679687261116219e-04  1.5430174980363338e-03 -4.0319991451586531e-05 2.2558062374213335e-04  1.2486167320381414e-03 -4.3535154535594156e-05 3.6758697244479796e-04  8.2544374447063025e-04 -3.6174018784715126e-05 4.7522043025475299e-04  3.3712661931665876e-04 -3.9877260602062151e-05 5.6561374751198674e-04  -1.6620625503276722e-04 -5.2895862392239130e-05 6.4161596897341290e-04  -7.5554202667610132e-04 -5.5719084919244664e-05 7.0729330645683398e-04  -1.3935060356904771e-03 -3.5326781684528690e-05 6.8680117295161344e-04  -1.7847360174868608e-03 -3.0778202960540034e-06 4.8868877963631290e-04  -1.8326702837165646e-03 5.3515523826525964e-05 3.3499319617091009e-04  1.5143845241995046e-01 8.8070554482768011e-04 4.9866625779093892e-04  1.8004201494198598e-03 -5.3693714883641266e-05 2.5410416775958753e-04  1.9023892461718253e-03 -5.6128749306588377e-05 1.8144251591681044e-04  1.5295413603733629e-01 8.3629636495192907e-04 1.2510767989306042e-03  1.5038139729778996e-01 1.2383578732665114e-03 2.9694771567403386e-04  1.6548144476979695e-03 -1.0422893541245716e-04 4.4868433932592703e-04  1.5037024192928428e-01 1.0250339387093013e-03 1.6763318354929172e-04  1.5046392798823520e-03 -1.8574141766570439e-04 6.6574925666097284e-04  1.5048431183262836e-01 6.5934402364822289e-04 2.4140831928063425e-05  1.2697089373116981e-03 -3.0942276571914944e-04 9.4167680677405654e-04  1.5082874951547676e-01 5.2352582057669161e-04 -9.7462321830253199e-05  8.2359978897275480e-04 -4.5648949756722595e-04 1.3380793743980883e-03  1.5136362747669027e-01 7.3237718575925865e-04 -3.0001526085439206e-04  -7.4956488774047811e-05 -6.0087835879799999e-04 1.9193146574269743e-03  1.5209912392228520e-01 1.1918798740390537e-03 -8.4070570681376742e-04  -1.6092061608286470e-03 -6.4341331004591170e-04 2.6088308459532327e-03  1.5312951159531976e-01 1.3405081432769025e-03 -1.7518824556982200e-03  -3.1299132841131902e-03 -4.3540195317882843e-04 2.8049572725317362e-03  1.5390684916535358e-01 1.3260383062751202e-03 -2.4217058801179392e-03  -3.8094253211388564e-03 -1.9332374628352377e-04 1.1762035885928581e-03  1.5516990444988249e-01 1.3122077652512789e-03 -5.9270420177443698e-03  -4.0543451741684392e-03 -1.3440222391833306e-04 1.3114010482010955e-03  1.9562641831135955e-01 9.6877743005582232e-04 7.9181506788889011e-04  1.9517790995791373e-01 3.0140196300338564e-03 1.9577161702394662e-03  1.9498531618723211e-01 1.2341468274231339e-03 3.8641740113677761e-04  1.9490396531724508e-01 9.7294787290646016e-04 -6.1395734616265738e-06  1.9537829321449832e-01 4.0425863085405823e-04 -4.3457921137591860e-04  1.9638623791368348e-01 4.1431647360703192e-04 -5.8973953153385256e-04  1.9756165625505667e-01 9.3970931905359826e-04 -5.4617932501618686e-04  1.9870634140738533e-01 1.5968201529743165e-03 -6.5224905217242039e-04  1.9979361068548407e-01 1.8325187521439760e-03 -1.1408743881614421e-03  2.0140641541965235e-01 9.8784908405490611e-04 -1.5428109572640728e-03  2.0361427229361803e-01 2.1347734081795340e-03 -4.6635419409936955e-03  2.0555281312133689e-01 1.3024527222281761e-03 1.3841428229826674e-03  2.0391432566375450e-01 3.2817585126559633e-03 3.1118730962042102e-03  2.0525730914988549e-01 7.4441898486381490e-04 7.2353728340753291e-04  2.0495625797475464e-01 9.8319828837791686e-05 -3.6759855233303628e-05  2.0544037619866684e-01 -7.7216055070073223e-04 -1.0674618072413784e-03  2.0705193920959067e-01 -6.4730338838248579e-04 -1.1470839195996511e-03  2.0865264957464086e-01 1.1173519342535768e-04 -6.1006003639079494e-04  2.0990038741287892e-01 7.7341541400817026e-04 -1.6865804755538197e-04  2.1084485693909963e-01 8.0826057455137641e-04 -1.5894993731358460e-04  2.1232574874114726e-01 -2.2444086201321456e-04 -4.5045320237870827e-04  2.1491782666586384e-01 1.0426293922049775e-03 -2.5395316881499483e-03  1.9584082437340447e-01 6.5911980160228119e-04 2.1625618345730460e-03  1.9320794659177423e-01 2.0522476068646394e-03 4.2441544259847735e-03  1.9547830630821889e-01 -4.6477985498520059e-05 1.5431757162354361e-03  1.9480104199160919e-01 -9.6622549894655489e-04 -8.9281946026359248e-05  1.9502712212147783e-01 -1.8141570395936268e-03 -2.1475820898875465e-03  1.97204069183