<?xml version="1.0"?>
<VTKFile type="UnstructuredGrid"  version="0.1"  >
<UnstructuredGrid>
<Piece  NumberOfPoints="539" NumberOfCells="2160">
<Points>
<DataArray  type="Float64"  NumberOfComponents="3"  format="ascii">0 0.2 0.2  0.1 0.2 0.2  0.1 0.3 0.2  0.1 0.3 0.3  0.1 0.2 0.3  0 0.2 0.3  0 0.3 0.2  0 0.3 0.3  0.2 0.2 0.2  0.2 0.3 0.2  0.2 0.3 0.3  0.2 0.2 0.3  0.3 0.2 0.2  0.3 0.3 0.2  0.3 0.3 0.3  0.3 0.2 0.3  0.4 0.2 0.2  0.4 0.3 0.2  0.4 0.3 0.3  0.4 0.2 0.3  0.5 0.2 0.2  0.5 0.3 0.2  0.5 0.3 0.3  0.5 0.2 0.3  0.6 0.2 0.2  0.6 0.3 0.2  0.6 0.3 0.3  0.6 0.2 0.3  0.7 0.2 0.2  0.7 0.3 0.2  0.7 0.3 0.3  0.7 0.2 0.3  0.8 0.2 0.2  0.8 0.3 0.2  0.8 0.3 0.3  0.8 0.2 0.3  0.9 0.2 0.2  0.9 0.3 0.2  0.9 0.3 0.3  0.9 0.2 0.3  1 0.2 0.2  1 0.3 0.2  1 0.3 0.3  1 0.2 0.3  0.1 0.4 0.2  0.1 0.4 0.3  0 0.4 0.2  0 0.4 0.3  0.2 0.4 0.2  0.2 0.4 0.3  0.3 0.4 0.2  0.3 0.4 0.3  0.4 0.4 0.2  0.4 0.4 0.3  0.5 0.4 0.2  0.5 0.4 0.3  0.6 0.4 0.2  0.6 0.4 0.3  0.7 0.4 0.2  0.7 0.4 0.3  0.8 0.4 0.2  0.8 0.4 0.3  0.9 0.4 0.2  0.9 0.4 0.3  1 0.4 0.2  1 0.4 0.3  0.1 0.5 0.2  0.1 0.5 0.3  0 0.5 0.2  0 0.5 0.3  0.2 0.5 0.2  0.2 0.5 0.3  0.3 0.5 0.2  0.3 0.5 0.3  0.4 0.5 0.2  0.4 0.5 0.3  0.5 0.5 0.2  0.5 0.5 0.3  0.6 0.5 0.2  0.6 0.5 0.3  0.7 0.5 0.2  0.7 0.5 0.3  0.8 0.5 0.2  0.8 0.5 0.3  0.9 0.5 0.2  0.9 0.5 0.3  1 0.5 0.2  1 0.5 0.3  0.1 0.6 0.2  0.1 0.6 0.3  0 0.6 0.2  0 0.6 0.3  0.2 0.6 0.2  0.2 0.6 0.3  0.3 0.6 0.2  0.3 0.6 0.3  0.4 0.6 0.2  0.4 0.6 0.3  0.5 0.6 0.2  0.5 0.6 0.3  0.6 0.6 0.2  0.6 0.6 0.3  0.7 0.6 0.2  0.7 0.6 0.3  0.8 0.6 0.2  0.8 0.6 0.3  0.9 0.6 0.2  0.9 0.6 0.3  1 0.6 0.2  1 0.6 0.3  0.1 0.7 0.2  0.1 0.7 0.3  0 0.7 0.2  0 0.7 0.3  0.2 0.7 0.2  0.2 0.7 0.3  0.3 0.7 0.2  0.3 0.7 0.3  0.4 0.7 0.2  0.4 0.7 0.3  0.5 0.7 0.2  0.5 0.7 0.3  0.6 0.7 0.2  0.6 0.7 0.3  0.7 0.7 0.2  0.7 0.7 0.3  0.8 0.7 0.2  0.8 0.7 0.3  0.9 0.7 0.2  0.9 0.7 0.3  1 0.7 0.2  1 0.7 0.3  0.1 0.8 0.2  0.1 0.8 0.3  0 0.8 0.2  0 0.8 0.3  0.2 0.8 0.2  0.2 0.8 0.3  0.3 0.8 0.2  0.3 0.8 0.3  0.4 0.8 0.2  0.4 0.8 0.3  0.5 0.8 0.2  0.5 0.8 0.3  0.6 0.8 0.2  0.6 0.8 0.3  0.7 0.8 0.2  0.7 0.8 0.3  0.8 0.8 0.2  0.8 0.8 0.3  0.9 0.8 0.2  0.9 0.8 0.3  1 0.8 0.2  1 0.8 0.3  0.1 0.3 0.4  0.1 0.2 0.4  0 0.2 0.4  0 0.3 0.4  0.2 0.3 0.4  0.2 0.2 0.4  0.3 0.3 0.4  0.3 0.2 0.4  0.4 0.3 0.4  0.4 0.2 0.4  0.5 0.3 0.4  0.5 0.2 0.4  0.6 0.3 0.4  0.6 0.2 0.4  0.7 0.3 0.4  0.7 0.2 0.4  0.8 0.3 0.4  0.8 0.2 0.4  0.9 0.3 0.4  0.9 0.2 0.4  1 0.3 0.4  1 0.2 0.4  0.1 0.4 0.4  0 0.4 0.4  0.2 0.4 0.4  0.3 0.4 0.4  0.4 0.4 0.4  0.5 0.4 0.4  0.6 0.4 0.4  0.7 0.4 0.4  0.8 0.4 0.4  0.9 0.4 0.4  1 0.4 0.4  0.1 0.5 0.4  0 0.5 0.4  0.2 0.5 0.4  0.3 0.5 0.4  0.4 0.5 0.4  0.5 0.5 0.4  0.6 0.5 0.4  0.7 0.5 0.4  0.8 0.5 0.4  0.9 0.5 0.4  1 0.5 0.4  0.1 0.6 0.4  0 0.6 0.4  0.2 0.6 0.4  0.3 0.6 0.4  0.4 0.6 0.4  0.5 0.6 0.4  0.6 0.6 0.4  0.7 0.6 0.4  0.8 0.6 0.4  0.9 0.6 0.4  1 0.6 0.4  0.1 0.7 0.4  0 0.7 0.4  0.2 0.7 0.4  0.3 0.7 0.4  0.4 0.7 0.4  0.5 0.7 0.4  0.6 0.7 0.4  0.7 0.7 0.4  0.8 0.7 0.4  0.9 0.7 0.4  1 0.7 0.4  0.1 0.8 0.4  0 0.8 0.4  0.2 0.8 0.4  0.3 0.8 0.4  0.4 0.8 0.4  0.5 0.8 0.4  0.6 0.8 0.4  0.7 0.8 0.4  0.8 0.8 0.4  0.9 0.8 0.4  1 0.8 0.4  0.1 0.3 0.5  0.1 0.2 0.5  0 0.2 0.5  0 0.3 0.5  0.2 0.3 0.5  0.2 0.2 0.5  0.3 0.3 0.5  0.3 0.2 0.5  0.4 0.3 0.5  0.4 0.2 0.5  0.5 0.3 0.5  0.5 0.2 0.5  0.6 0.3 0.5  0.6 0.2 0.5  0.7 0.3 0.5  0.7 0.2 0.5  0.8 0.3 0.5  0.8 0.2 0.5  0.9 0.3 0.5  0.9 0.2 0.5  1 0.3 0.5  1 0.2 0.5  0.1 0.4 0.5  0 0.4 0.5  0.2 0.4 0.5  0.3 0.4 0.5  0.4 0.4 0.5  0.5 0.4 0.5  0.6 0.4 0.5  0.7 0.4 0.5  0.8 0.4 0.5  0.9 0.4 0.5  1 0.4 0.5  0.1 0.5 0.5  0 0.5 0.5  0.2 0.5 0.5  0.3 0.5 0.5  0.4 0.5 0.5  0.5 0.5 0.5  0.6 0.5 0.5  0.7 0.5 0.5  0.8 0.5 0.5  0.9 0.5 0.5  1 0.5 0.5  0.1 0.6 0.5  0 0.6 0.5  0.2 0.6 0.5  0.3 0.6 0.5  0.4 0.6 0.5  0.5 0.6 0.5  0.6 0.6 0.5  0.7 0.6 0.5  0.8 0.6 0.5  0.9 0.6 0.5  1 0.6 0.5  0.1 0.7 0.5  0 0.7 0.5  0.2 0.7 0.5  0.3 0.7 0.5  0.4 0.7 0.5  0.5 0.7 0.5  0.6 0.7 0.5  0.7 0.7 0.5  0.8 0.7 0.5  0.9 0.7 0.5  1 0.7 0.5  0.1 0.8 0.5  0 0.8 0.5  0.2 0.8 0.5  0.3 0.8 0.5  0.4 0.8 0.5  0.5 0.8 0.5  0.6 0.8 0.5  0.7 0.8 0.5  0.8 0.8 0.5  0.9 0.8 0.5  1 0.8 0.5  0.1 0.3 0.6  0.1 0.2 0.6  0 0.2 0.6  0 0.3 0.6  0.2 0.3 0.6  0.2 0.2 0.6  0.3 0.3 0.6  0.3 0.2 0.6  0.4 0.3 0.6  0.4 0.2 0.6  0.5 0.3 0.6  0.5 0.2 0.6  0.6 0.3 0.6  0.6 0.2 0.6  0.7 0.3 0.6  0.7 0.2 0.6  0.8 0.3 0.6  0.8 0.2 0.6  0.9 0.3 0.6  0.9 0.2 0.6  1 0.3 0.6  1 0.2 0.6  0.1 0.4 0.6  0 0.4 0.6  0.2 0.4 0.6  0.3 0.4 0.6  0.4 0.4 0.6  0.5 0.4 0.6  0.6 0.4 0.6  0.7 0.4 0.6  0.8 0.4 0.6  0.9 0.4 0.6  1 0.4 0.6  0.1 0.5 0.6  0 0.5 0.6  0.2 0.5 0.6  0.3 0.5 0.6  0.4 0.5 0.6  0.5 0.5 0.6  0.6 0.5 0.6  0.7 0.5 0.6  0.8 0.5 0.6  0.9 0.5 0.6  1 0.5 0.6  0.1 0.6 0.6  0 0.6 0.6  0.2 0.6 0.6  0.3 0.6 0.6  0.4 0.6 0.6  0.5 0.6 0.6  0.6 0.6 0.6  0.7 0.6 0.6  0.8 0.6 0.6  0.9 0.6 0.6  1 0.6 0.6  0.1 0.7 0.6  0 0.7 0.6  0.2 0.7 0.6  0.3 0.7 0.6  0.4 0.7 0.6  0.5 0.7 0.6  0.6 0.7 0.6  0.7 0.7 0.6  0.8 0.7 0.6  0.9 0.7 0.6  1 0.7 0.6  0.1 0.8 0.6  0 0.8 0.6  0.2 0.8 0.6  0.3 0.8 0.6  0.4 0.8 0.6  0.5 0.8 0.6  0.6 0.8 0.6  0.7 0.8 0.6  0.8 0.8 0.6  0.9 0.8 0.6  1 0.8 0.6  0.1 0.3 0.7  0.1 0.2 0.7  0 0.2 0.7  0 0.3 0.7  0.2 0.3 0.7  0.2 0.2 0.7  0.3 0.3 0.7  0.3 0.2 0.7  0.4 0.3 0.7  0.4 0.2 0.7  0.5 0.3 0.7  0.5 0.2 0.7  0.6 0.3 0.7  0.6 0.2 0.7  0.7 0.3 0.7  0.7 0.2 0.7  0.8 0.3 0.7  0.8 0.2 0.7  0.9 0.3 0.7  0.9 0.2 0.7  1 0.3 0.7  1 0.2 0.7  0.1 0.4 0.7  0 0.4 0.7  0.2 0.4 0.7  0.3 0.4 0.7  0.4 0.4 0.7  0.5 0.4 0.7  0.6 0.4 0.7  0.7 0.4 0.7  0.8 0.4 0.7  0.9 0.4 0.7  1 0.4 0.7  0.1 0.5 0.7  0 0.5 0.7  0.2 0.5 0.7  0.3 0.5 0.7  0.4 0.5 0.7  0.5 0.5 0.7  0.6 0.5 0.7  0.7 0.5 0.7  0.8 0.5 0.7  0.9 0.5 0.7  1 0.5 0.7  0.1 0.6 0.7  0 0.6 0.7  0.2 0.6 0.7  0.3 0.6 0.7  0.4 0.6 0.7  0.5 0.6 0.7  0.6 0.6 0.7  0.7 0.6 0.7  0.8 0.6 0.7  0.9 0.6 0.7  1 0.6 0.7  0.1 0.7 0.7  0 0.7 0.7  0.2 0.7 0.7  0.3 0.7 0.7  0.4 0.7 0.7  0.5 0.7 0.7  0.6 0.7 0.7  0.7 0.7 0.7  0.8 0.7 0.7  0.9 0.7 0.7  1 0.7 0.7  0.1 0.8 0.7  0 0.8 0.7  0.2 0.8 0.7  0.3 0.8 0.7  0.4 0.8 0.7  0.5 0.8 0.7  0.6 0.8 0.7  0.7 0.8 0.7  0.8 0.8 0.7  0.9 0.8 0.7  1 0.8 0.7  0.1 0.3 0.8  0.1 0.2 0.8  0 0.2 0.8  0 0.3 0.8  0.2 0.3 0.8  0.2 0.2 0.8  0.3 0.3 0.8  0.3 0.2 0.8  0.4 0.3 0.8  0.4 0.2 0.8  0.5 0.3 0.8  0.5 0.2 0.8  0.6 0.3 0.8  0.6 0.2 0.8  0.7 0.3 0.8  0.7 0.2 0.8  0.8 0.3 0.8  0.8 0.2 0.8  0.9 0.3 0.8  0.9 0.2 0.8  1 0.3 0.8  1 0.2 0.8  0.1 0.4 0.8  0 0.4 0.8  0.2 0.4 0.8  0.3 0.4 0.8  0.4 0.4 0.8  0.5 0.4 0.8  0.6 0.4 0.8  0.7 0.4 0.8  0.8 0.4 0.8  0.9 0.4 0.8  1 0.4 0.8  0.1 0.5 0.8  0 0.5 0.8  0.2 0.5 0.8  0.3 0.5 0.8  0.4 0.5 0.8  0.5 0.5 0.8  0.6 0.5 0.8  0.7 0.5 0.8  0.8 0.5 0.8  0.9 0.5 0.8  1 0.5 0.8  0.1 0.6 0.8  0 0.6 0.8  0.2 0.6 0.8  0.3 0.6 0.8  0.4 0.6 0.8  0.5 0.6 0.8  0.6 0.6 0.8  0.7 0.6 0.8  0.8 0.6 0.8  0.9 0.6 0.8  1 0.6 0.8  0.1 0.7 0.8  0 0.7 0.8  0.2 0.7 0.8  0.3 0.7 0.8  0.4 0.7 0.8  0.5 0.7 0.8  0.6 0.7 0.8  0.7 0.7 0.8  0.8 0.7 0.8  0.9 0.7 0.8  1 0.7 0.8  0.1 0.8 0.8  0 0.8 0.8  0.2 0.8 0.8  0.3 0.8 0.8  0.4 0.8 0.8  0.5 0.8 0.8  0.6 0.8 0.8  0.7 0.8 0.8  0.8 0.8 0.8  0.9 0.8 0.8  1 0.8 0.8  </DataArray>
</Points>
<Cells>
[...]
<PointData  Vectors="f_23"> 
<DataArray  type="Float64"  Name="f_23"  NumberOfComponents="3" format="ascii">8.5043428282944038e-04 2.4028794172643164e-04 7.5486285991804258e-06  7.5931684632576501e-04 3.4718577377079718e-04 -3.7857245073759633e-06  8.5564528648677304e-04 2.4962428593703641e-04 9.6890825176051467e-06  8.0033456904592445e-02 3.7263937167624693e-04 5.9295454511155987e-04  7.5052371372274368e-04 3.3163974310708840e-04 2.0529812487240465e-06  8.3351732252486238e-04 2.2561056679357979e-04 1.4431566130812473e-05  9.3967129028443266e-04 1.6396287364209007e-04 1.2820220086045794e-05  7.8965716578874509e-02 1.6309080634671032e-03 1.4710151550459936e-03  6.3559404968474098e-04 5.2940371376532203e-04 -3.8058525144889800e-05  7.3303527188866451e-04 4.0488607084700337e-04 -5.5628296978265440e-06  7.9116598792356815e-02 9.1645618105980754e-05 3.2789359448599570e-04  6.2468661688682477e-04 5.4122592139019417e-04 -3.1910848834302873e-05  4.7460624246963679e-04 6.7779434566141833e-04 -1.0159083511181107e-04  5.6948086754525550e-04 5.3101764930138940e-04 -3.9868114673385410e-05  7.8997140264822699e-02 -1.1041450043769448e-04 4.3184160552110719e-04  4.5281188223383564e-04 7.4575678872669819e-04 -1.0955511467954288e-04  2.8954060312919873e-04 7.6352369719399991e-04 -1.7898210647842192e-04  3.6711588560593494e-04 6.1118527627359968e-04 -8.8435741077964134e-05  7.8692086916276410e-02 -3.2964279638751209e-04 6.5932097065425643e-04  2.7088953883100170e-04 9.1100978703943499e-04 -2.2696337448942442e-04  6.6635699514130622e-05 7.4916628163367537e-04 -2.2888154168066750e-04  1.1509857317091690e-04 6.1954676245784903e-04 -1.2608923765906492e-04  7.8164533318876725e-02 -5.9385284964509058e-04 9.7389955055694625e-04  8.9857590317644719e-05 9.8219320410862553e-04 -3.4351132530875575e-04  -2.4276487458988865e-04 6.1756790017636202e-04 -2.0269297138445484e-04  -2.1852144998205528e-04 5.3820263915784958e-04 -1.1926474533383861e-04  7.7447072590052402e-02 -8.2268891382158765e-04 1.2794296729175861e-03  -1.3041752580051803e-04 8.9620329954595882e-04 -3.7770265437628276e-04  -6.8222286332679147e-04 4.0756483011849165e-04 -1.0369005726060575e-04  -6.6346116903456365e-04 3.8264652654353229e-04 -6.2041013573034445e-05  7.6923236697810385e-02 -9.5471110742495144e-04 1.3328532687809072e-03  -4.8148251394279932e-04 6.4937754665940223e-04 -2.6919473857829677e-04  -1.1680564575942524e-03 2.0117026404009903e-04 -1.9350911095466561e-05  -1.1616668564979416e-03 2.1043462831789580e-04 -7.7568118962691227e-06  7.7840295574755469e-02 -9.5651650355384698e-04 5.7313555265963020e-04  -9.7687613433318173e-04 3.4030458073336866e-04 -1.1165583703181100e-04  -1.4877760811578228e-03 6.7614377865280766e-05 -2.7142824966823107e-05  -1.5159511848999454e-03 7.7643162261839261e-05 -2.4838295095117645e-07  8.1657639981133359e-02 -7.1062717898809325e-04 -8.8951413464767343e-04  -1.3965204195577887e-03 1.3496254869070645e-04 -7.1718831619947324e-05  -1.6544194786885869e-03 8.2864136651016930e-05 1.5012275586438987e-06  -1.6707875790529909e-03 6.3238175815588061e-05 1.7126346731475059e-05  8.4928677093391261e-02 2.6937785420124224e-04 1.6709872787151266e-03  -1.6152853937965988e-03 1.0616210988907742e-04 -4.4510323708162874e-05  9.9352399005380159e-04 1.5770832778486658e-04 2.1606177821966566e-05  1.1662372235518791e-01 -2.8883505272072268e-04 4.4130351051453184e-04  1.0748187380412728e-03 1.0449153348045586e-04 1.9147217306539325e-05  1.1540369927314841e-01 1.6106735543372093e-03 1.4883690000134504e-03  8.5012642516541414e-04 2.6306278088675787e-04 2.5378459831127121e-05  1.1583446601623762e-01 -3.0853401123429481e-04 2.5813329081361236e-04  6.5656712013911029e-04 3.5247832483688773e-04 1.8030792188959046e-05  1.1550035292161895e-01 -3.7082274707006242e-04 2.3910801707008799e-04  4.0656548950004668e-04 4.0871467773941826e-04 2.8566908232958182e-06  1.1524448404944264e-01 -5.1942139580388495e-04 2.5169090432702683e-04  9.0620604319110361e-05 4.1568661740441608e-04 -8.2554173055016554e-06  1.1492848332536205e-01 -6.7456927123518739e-04 2.3967489036210465e-04  -3.0581594885897124e-04 3.6391261062187471e-04 -4.8640683233182327e-07  1.1463048702397048e-01 -7.1164463643635413e-04 1.1632847440453783e-04  -7.8673883848425462e-04 2.6387492050135351e-04 2.5444700305989301e-05  1.1466269580871048e-01 -5.2376432431059620e-04 -2.3540387696304385e-04  -1.2847706324154746e-03 1.5201744163203767e-04 3.7321838317648614e-05  1.1568819558110770e-01 -1.2917113935720462e-04 -9.0378597144885359e-04  -1.6241397069544289e-03 6.5556990967798590e-05 2.1971906737105688e-05  1.1846943743633931e-01 3.3016803564004039e-04 -1.3451687779216493e-03  -1.7675429257336885e-03 4.9142475632580018e-05 4.5990961251567702e-05  1.2159322391886015e-01 2.5942208747952784e-04 1.8252502508887374e-03  1.0833274693527828e-03 9.7909685428387429e-05 2.7783983310641829e-05  1.2661738252745602e-01 -1.3129094349763782e-04 3.4599324077992704e-04  1.1619655443104407e-03 6.2929900868533803e-05 2.1346239331512560e-05  1.2562384588983669e-01 1.0825153376467556e-03 1.4145780813425010e-03  9.3102794795555082e-04 1.6730289315669273e-04 3.9217392308393122e-05  1.2594916112261101e-01 -3.0477860241970647e-04 1.6584163452820278e-04  7.1502496221625413e-04 2.2698787143439039e-04 4.5228041753720024e-05  1.2559939343470727e-01 -3.0535034055463036e-04 1.1635569724049857e-04  4.2859688812739189e-04 2.6281183740383649e-04 4.7043437871105365e-05  1.2528706625360425e-01 -3.3634336384813908e-04 7.6618331907506691e-05  6.7028778026717294e-05 2.6247599238271064e-04 5.0177397538090199e-05  1.2499517324875872e-01 -3.5736195330060181e-04 -1.8418618791688956e-06  -3.7118797262178756e-04 2.2101962541214859e-04 5.9958818393553281e-05  1.2486897127131172e-01 -2.8297066142539407e-04 -1.8916994574164672e-04  -8.7234529857588771e-04 1.4974425260965362e-04 7.1638258826400505e-05  1.2521126841029534e-01 -3.8365328051497238e-05 -5.6272215202689388e-04  -1.3628153043275520e-03 7.9399569324785439e-05 6.2156676828489094e-05  1.2640708774088846e-01 3.4437187602186643e-04 -1.0909698853315774e-03  -1.6901880310128802e-03 3.4679411771708613e-05 3.4818326202525858e-05  1.2870539464364636e-01 6.7344906177814294e-04 -1.1338467651186685e-03  -1.8263333258571545e-03 2.8029823365369600e-05 5.5233748489149524e-05  1.3158131613692670e-01 3.1551455923865883e-04 1.5619883953539276e-03  1.1424723167710333e-03 5.8063022521592775e-05 2.9123793580134317e-05  1.1633410233534465e-01 -9.1442744455280241e-05 2.7917219858936322e-04  1.2157400979839401e-03 3.0600677860001615e-05 2.1977583752620362e-05  1.1545962467050017e-01 6.1873268798619968e-04 1.3139604283572421e-03  9.8889483676134070e-04 1.0565728023196102e-04 4.1499682210232489e-05  1.1577552415047100e-01 -1.8938400896261997e-04 1.1621133197549926e-04  7.6015141532329012e-04 1.5032893043319712e-04 4.9982831773808064e-05  1.1547903728705319e-01 -1.4469399575334042e-04 5.9299980970257427e-05  4.4805491677424688e-04 1.7970426758490859e-04 5.6485604407226157e-05  1.1519045535526003e-01 -8.8020447990381663e-05 1.2745918269587274e-05  5.2900781595082456e-05 1.8279427166805620e-04 6.3295544511976628e-05  1.1493779402969595e-01 -1.2756421643756242e-05 -6.5734387343534273e-05  -4.1647696540880822e-04 1.5497740970355742e-04 7.1340062851144771e-05  1.1489474579641960e-01 1.1175566538991175e-04 -2.3056770759901290e-04  -9.3156124958694261e-04 1.0410688637176073e-04 7.5748895865831612e-05  1.1533370036425838e-01 2.9826806449113392e-04 -5.3494617977073574e-04  -1.4104711710115259e-03 5.4164929867350062e-05 6.0068268463589211e-05  1.1650415200264005e-01 4.8569114896584970e-04 -9.0450915727843925e-04  -1.7224003853284708e-03 1.7093326760925942e-05 3.4335114353288600e-05  1.1842397738946710e-01 4.8100631782457311e-04 -7.9405763710245166e-04  -1.8504561234416006e-03 2.1072497034615591e-05 4.8199238207354487e-05  1.2059479082615689e-01 1.7860603075815041e-04 1.2982429511612416e-03  1.1874230765234752e-03 2.8398931815746195e-05 2.8862546235246663e-05  8.0506025654079355e-02 -9.2744877971965249e-05 2.2560881769196416e-04  1.2486644508847230e-03 1.2613694453235984e-05 2.2526954622297333e-05  8.0445178708126494e-02 4.0305042478440157e-04 1.0892527308972344e-03  1.0443241133307082e-03 6.4236154082929209e-05 3.8573179707971707e-05  8.0057516178621127e-02 -3.8280589900788000e-05 8.6241171107015726e-05  8.1745924227328843e-04 1.0661348748725634e-04 4.1930362151610106e-05  7.9880874918491690e-02 1.0002469138199671e-04 3.2875465134218000e-05  4.9453062301940708e-04 1.4362938269010857e-04 4.4793222156031658e-05  7.9728198856644547e-02 2.3791291239405653e-04 -3.4183460150568157e-06  7.9418431286811349e-05 1.6240947584757545e-04 4.8531066933953734e-05  7.9593399733194903e-02 3.8996674523798618e-04 -7.3707173354731480e-05  -4.1391869817168826e-04 1.5650148713306438e-04 5.1769179479858356e-05  7.9600808766439338e-02 5.4752133582179369e-04 -2.1405507107210019e-04  -9.5089320136527826e-04 1.2807298401980530e-04 5.1436301330093337e-05  7.9929559631317815e-02 6.7875620909019576e-04 -4.4174322159168145e-04  -1.4444343802669194e-03 8.7968579164570193e-05 4.0125112825838976e-05  8.0765230686650633e-02 7.2321846604880803e-04 -6.7227305601208953e-04  -1.7462229516735160e-03 4.4189158889821554e-05 2.4945173488464100e-05  8.2366877718152251e-02 5.9866493103656799e-04 -5.2927679232394763e-04  -1.8612553986667914e-03 3.6500712889985968e-05 2.9553984184390780e-05  8.3300115924920343e-02 -2.9285657418958249e-05 1.1486277859914500e-03  1.2295286402664678e-03 1.8338862700497986e-05 2.5837010920666359e-05  1.2466567953631112e-03 1.4910965099914373e-05 2.0013079525896735e-05  1.2644262359293701e-03 8.6629444696588832e-06 1.7014955543559666e-05  1.2746287942425785e-03 8.3764608464066044e-06 1.5404478423375915e-05  1.1215217859174295e-03 5.2949700573724308e-05 3.4871397140319828e-05  1.1590101810722022e-03 3.8673822781432145e-05 3.3231274217270907e-05  9.2997966678128572e-04 9.1239471174686207e-05 4.4925289671420281e-05  9.9991919401076095e-04 8.0227954143527686e-05 3.8756834433211316e-05  6.4752598512002465e-04 1.2922644634253658e-04 4.6696721032393637e-05  7.5383905836896642e-04 1.2348537785312688e-04 4.1096923027171481e-05  2.6929763032618241e-04 1.5473426011674904e-04 4.6311616093314397e-05  4.1498937789471286e-04 1.5516491181057621e-04 4.3779144305481114e-05  -1.9882152774319416e-04 1.5897278345494204e-04 4.5821003422662843e-05  -1.2846884371733943e-05 1.6520781808198486e-04 4.7181058469667097e-05  -7.3509936102903242e-04 1.3913698696343661e-04 4.5873147429192748e-05  -5.1772925425682542e-04 1.5124533266622504e-04 5.0279948931733427e-05  -1.2781941424082528e-03 9.6361919544229153e-05 4.4238673142056451e-05  -1.0620367951159645e-03 1.1857486742683710e-04 4.9094526929583267e-05  -1.6941014776012341e-03 5.6689766645049377e-05 2.4888728363519928e-05  -1.5264476198632989e-03 7.2335226915977549e-05 3.4744807603665920e-05  -1.8533874528616934e-03 4.4585555986208781e-05 1.0228003489022469e-05  -1.7351074184255382e-03 4.7889357048315747e-05 2.2303685819958214e-05  1.1684873000223853e-01 2.8899420193183257e-04 2.1035285335337038e-04  7.4818280962453995e-04 3.2740133703911472e-04 2.6718721401504235e-05  8.4666714275472336e-04 2.1438964435559907e-04 3.3795522117262705e-05  1.1583453939824134e-01 1.6369070474715067e-03 1.1851565541030837e-03  1.1598390206577382e-01 8.3065891302070864e-05 1.7386591377719661e-04  5.8269473587612493e-04 5.6565800585339884e-04 8.0022575670283158e-06  1.1601508630600746e-01 -1.2385322469769640e-04 3.8756961903237125e-04  3.5440135085489007e-04 8.4054813643225079e-04 -6.9266361261157135e-05  1.1592337021897123e-01 -3.7126373320362334e-04 7.6048528410782015e-04  1.1510744178245335e-04 1.1370992399935705e-03 -2.2811264345805191e-04  1.1556598582756772e-01 -7.4147529864254647e-04 1.2903786165992239e-03  -7.6223237312473483e-05 1.3920343174445369e-03 -4.5623873874611585e-04  1.1473992965956969e-01 -1.1581848850204404e-03 1.8263232488715624e-03  -2.0092582475969936e-04 1.4664587444132952e-03 -6.5037814254454850e-04  1.1332088767300574e-01 -1.3073320497565312e-03 1.9799299368025072e-03  -3.6857113489623399e-04 1.2174762103487574e-03 -6.1285671782362731e-04  1.1305658771899386e-01 -1.3037641069501933e-03 1.1781172737903062e-03  -7.3854187136875504e-04 6.9451575614549771e-04 -3.2372790383762735e-04  1.1845204779567588e-01 -1.3660212635449578e-03 -1.1691639884129918e-03  -1.1793235130404672e-03 2.7902920232009641e-04 -2.1194528127741979e-04  1.2462202269822115e-01 -8.7770243206210754e-07 2.5324652936038038e-03  -1.4754611378986126e-03 2.0032463562173023e-04 -2.2511381423924795e-04  1.7449935693206511e-01 -4.2066840946682602e-04 1.6883219661545395e-04  1.7378230376972131e-01 1.6936056708592604e-03 1.2494080818853119e-03  1.7380137984579738e-01 -3.5282473215140722e-04 1.8435733474516202e-04  1.7343921187885761e-01 -4.6617371545081340e-04 3.1876865514819062e-04  1.7327765502562839e-01 -7.4722682960565330e-04 4.7017559106430452e-04  1.7307763312209379e-01 -1.1271351082055611e-03 5.8233697649603716e-04  1.7275250291779407e-01 -1.4136088269837343e-03 4.7109213757165458e-04  1.7242797881873531e-01 -1.2333869760754114e-03 -1.3832659449086163e-04  1.7300769271974195e-01 -4.1652094316940952e-04 -1.3837367133550341e-03  1.7650593207828166e-01 5.1478135526589100e-04 -2.2233800547033040e-03  1.8244329356581326e-01 -1.8884232077466539e-04 3.0345615296655105e-03  1.9140045252651178e-01 -2.0701036420388397e-04 1.1598914170209753e-04  1.9098000910556454e-01 1.1354362167163012e-03 1.2426895217066219e-03  1.9087228287052227e-01 -3.7561693219162988e-04 1.4529856023078207e-04  1.9048994367586686e-01 -3.9185146475989997e-04 2.3705029717348373e-04  1.9023464931070388e-01 -4.8896563452447903e-04 3.1422039814691722e-04  1.9000076265802196e-01 -6.2420956978668119e-04 3.3916443925385354e-04  1.8982500719076148e-01 -6.6356635754405392e-04 1.7990699411554810e-04  1.8997835778993255e-01 -3.9503758791506233e-04 -3.6254985496978327e-04  1.9111254556897525e-01 2.9235806452551969e-04 -1.3729802183073817e-03  1.9399709361347611e-01 1.0667581676841959e-03 -1.7106614998701941e-03  1.9904504631339501e-01 7.9307804115336442e-05 2.6382993389802512e-03  1.7420746443126039e-01 -1.4152633359801496e-04 8.3929500937631778e-05  1.7394513537220849e-01 6.2355595785744281e-04 1.1922921925147719e-03  1.7379279517372964e-01 -2.5412260860878589e-04 1.0856492807682221e-04  1.7347647564329810e-01 -2.0852756329802318e-04 1.7865417235281769e-04  1.7323945908088673e-01 -1.6908916594690445e-04 2.2721029358692491e-04  1.7303525611303647e-01 -1.3162830268100605e-04 2.3644014239340081e-04  1.7295623733252899e-01 -3.5787896581190592e-05 1.1804279906947043e-04  1.7330608285777227e-01 1.9750807194553457e-04 -2.6503530872278041e-04  1.7455507533767914e-01 5.7204601938341403e-04 -9.8624640371331785e-04  1.7688748050972736e-01 7.9847235635229690e-04 -1.0356513729297731e-03  1.8024130565912597e-01 -8.4917867515003518e-05 2.2669980959270151e-03  1.1657370092600988e-01 -1.1950689833682942e-04 4.0488101667927321e-05  1.1712141322335146e-01 3.8982193925325958e-04 1.0530364517692930e-03  1.1626321627428766e-01 -7.2556422008094242e-05 5.4180684739680158e-05  1.1608733670964767e-01 6.7724473628514965e-05 1.0944759106850914e-04  1.1598839281593015e-01 2.2001892261297595e-04 1.3755301111693376e-04  1.1591790798203247e-01 3.7758082516304718e-04 1.2867437128917389e-04  1.1592679685943330e-01 5.4951924844274223e-04 2.7044379275549522e-05  1.1622480595334152e-01 7.3040573240411451e-04 -2.5431782096309991e-04  1.1715957697124670e-01 8.5535270095632465e-04 -7.0134352576759547e-04  1.1900248403021982e-01 7.5776342336594869e-04 -5.1873403770992988e-04  1.2021159588858227e-01 -2.4591939259432748e-04 2.0741919117969361e-03  1.2659661359468296e-03 1.4901552739366564e-05 1.0642388484539843e-05  1.2931988027516954e-03 1.0011294689496734e-05 1.2847174498790582e-05  1.1763188673450894e-03 3.7666122508660187e-05 2.6501816461621570e-05  1.0134738735236269e-03 7.6413470899002180e-05 3.8571853698789910e-05  7.7161760001811955e-04 1.1513986658413420e-04 4.7872693883980952e-05  4.4052897893667536e-04 1.4427179966198251e-04 5.7913765972594664e-05  2.0168716589230243e-05 1.5321837221727683e-04 7.1076692871244505e-05  -4.8283640798841817e-04 1.3757939256400418e-04 8.5501723430318166e-05  -1.0401395528929068e-03 1.0341818437852770e-04 8.9980558523357788e-05  -1.5311162147984929e-03 5.8822818716921996e-05 6.8668226789429386e-05  -1.7464586487216532e-03 3.2363486705881897e-05 5.5570476431424326e-05  1.2700812676807946e-01 2.7466537683558433e-04 7.0412530162830252e-05  7.7054953533312151e-04 2.9720424742164271e-04 6.1852667146019408e-05  8.8277349225523950e-04 1.8690558225113436e-04 5.2962935305419525e-05  1.2601662745555600e-01 1.6605203316737047e-03 9.7289999588913911e-04  1.2621921996772159e-01 3.6677045632860197e-05 -2.4103635051787608e-05  5.6695967637544851e-04 5.3650616255160701e-04 8.4509885812777377e-05  1.2639231541195442e-01 -1.6391595400575503e-04 8.7078041727235987e-05  2.6828810204102704e-04 8.5650556839571128e-04 5.4007179001502605e-05  1.2643823759533890e-01 -4.2551586673708353e-04 3.5446785399294095e-04  -8.0334111915558547e-05 1.2889405855549369e-03 -8.3748716585183076e-05  1.2624019832913888e-01 -9.2485857175454537e-04 8.6117788475257879e-04  -3.8053072915208768e-04 1.8239544434461017e-03 -3.9011145746458282e-04  1.2555245911985227e-01 -1.8029892990916283e-03 1.5548897156092009e-03  -5.0172285603532218e-04 2.3064955345333195e-03 -8.4855190389445192e-04  1.2370731767027715e-01 -2.6397127222959993e-03 2.0091556072932217e-03  -4.3952729346135146e-04 2.3697397850176807e-03 -1.1762833112723252e-03  1.2108589554223458e-01 -1.6670685556512772e-03 1.5190015617855283e-03  -3.9979625027927387e-04 1.6642986354129087e-03 -7.8861193743351432e-04  1.2759355941215367e-01 -1.6542397025039663e-03 -1.9029169557577401e-05  -6.1530175410613350e-04 7.3208306303823968e-04 -4.3339601751342849e-04  1.4270464229180455e-01 -2.0592169546402150e-03 4.3436947686959076e-03  -8.2317685552646912e-04 5.0574331970538132e-04 -8.7539391985457741e-04  1.9155115361888583e-01 -4.2916007248087790e-04 1.2769638700327719e-04  1.9086738676222842e-01 1.7077412916817482e-03 1.0116264196270550e-03  1.9090750330600090e-01 -3.6296541962502145e-04 6.9582684006302498e-05  1.9059016240922497e-01 -4.9656358257414907e-04 1.7626813716202191e-04  1.9042106338172410e-01 -8.6028428797938579e-04 3.4029344454737220e-04  1.9018515802867716e-01 -1.4858300317027054e-03 5.0264404387448283e-04  1.8978996746500940e-01 -2.2872219365190280e-03 4.4490622294727914e-04  1.8918135786415721e-01 -2.5659688508069783e-03 -2.7094854881209329e-04  1.8919020109704482e-01 -1.0185707390673055e-03 -1.9003834198146848e-03  1.9345817731701903e-01 1.6079873314622027e-03 -3.6215435113421757e-03  2.0423585061262345e-01 -8.8735429959952144e-04 4.6461937801096243e-03  2.1082206298798462e-01 -2.2638997661584583e-04 1.1202843180322793e-04  2.1044857542543943e-01 1.1373376784547724e-03 1.0209223881340304e-03  2.1036051283806839e-01 -3.8870186619904319e-04 5.9519286384463640e-05  2.1001161057543477e-01 -4.1977587830658599e-04 1.2926685119734032e-04  2.0974932120785389e-01 -5.6958425383054408e-04 2.1067210329166769e-04  2.0946470800374598e-01 -8.2452159767136654e-04 2.4936438409953697e-04  2.0913717618218267e-01 -1.0433448934747387e-03 1.1181629763571821e-04  2.0896234163850200e-01 -8.2227214606425117e-04 -4.1283966322941699e-04  2.1001057556810526e-01 3.5254245395102631e-04 -1.4597775600759214e-03  2.1395152631984954e-01 2.0020496455104013e-03 -2.6784945781767977e-03  2.2211228599751201e-01 -1.7434714015219613e-04 3.7363452855140198e-03  1.9126264513382121e-01 -1.5824804127147465e-04 9.3077664449751015e-05  1.9105821166435408e-01 6.0923865811559838e-04 1.0002977272227352e-03  1.9091868885464031e-01 -2.6492147580843209e-04 3.6536664004798510e-05  1.9064203025396947e-01 -2.1711162857267400e-04 8.8379965922010347e-05  1.9040569845253677e-01 -1.9458509380129564e-04 1.3774868813376030e-04  1.9016857643954735e-01 -1.8806035842725441e-04 1.5283