<?xml version="1.0"?>
<VTKFile type="UnstructuredGrid"  version="0.1"  >
<UnstructuredGrid>
<Piece  NumberOfPoints="539" NumberOfCells="2160">
<Points>
<DataArray  type="Float64"  NumberOfComponents="3"  format="ascii">0 0.2 0.2  0.1 0.2 0.2  0.1 0.3 0.2  0.1 0.3 0.3  0.1 0.2 0.3  0 0.2 0.3  0 0.3 0.2  0 0.3 0.3  0.2 0.2 0.2  0.2 0.3 0.2  0.2 0.3 0.3  0.2 0.2 0.3  0.3 0.2 0.2  0.3 0.3 0.2  0.3 0.3 0.3  0.3 0.2 0.3  0.4 0.2 0.2  0.4 0.3 0.2  0.4 0.3 0.3  0.4 0.2 0.3  0.5 0.2 0.2  0.5 0.3 0.2  0.5 0.3 0.3  0.5 0.2 0.3  0.6 0.2 0.2  0.6 0.3 0.2  0.6 0.3 0.3  0.6 0.2 0.3  0.7 0.2 0.2  0.7 0.3 0.2  0.7 0.3 0.3  0.7 0.2 0.3  0.8 0.2 0.2  0.8 0.3 0.2  0.8 0.3 0.3  0.8 0.2 0.3  0.9 0.2 0.2  0.9 0.3 0.2  0.9 0.3 0.3  0.9 0.2 0.3  1 0.2 0.2  1 0.3 0.2  1 0.3 0.3  1 0.2 0.3  0.1 0.4 0.2  0.1 0.4 0.3  0 0.4 0.2  0 0.4 0.3  0.2 0.4 0.2  0.2 0.4 0.3  0.3 0.4 0.2  0.3 0.4 0.3  0.4 0.4 0.2  0.4 0.4 0.3  0.5 0.4 0.2  0.5 0.4 0.3  0.6 0.4 0.2  0.6 0.4 0.3  0.7 0.4 0.2  0.7 0.4 0.3  0.8 0.4 0.2  0.8 0.4 0.3  0.9 0.4 0.2  0.9 0.4 0.3  1 0.4 0.2  1 0.4 0.3  0.1 0.5 0.2  0.1 0.5 0.3  0 0.5 0.2  0 0.5 0.3  0.2 0.5 0.2  0.2 0.5 0.3  0.3 0.5 0.2  0.3 0.5 0.3  0.4 0.5 0.2  0.4 0.5 0.3  0.5 0.5 0.2  0.5 0.5 0.3  0.6 0.5 0.2  0.6 0.5 0.3  0.7 0.5 0.2  0.7 0.5 0.3  0.8 0.5 0.2  0.8 0.5 0.3  0.9 0.5 0.2  0.9 0.5 0.3  1 0.5 0.2  1 0.5 0.3  0.1 0.6 0.2  0.1 0.6 0.3  0 0.6 0.2  0 0.6 0.3  0.2 0.6 0.2  0.2 0.6 0.3  0.3 0.6 0.2  0.3 0.6 0.3  0.4 0.6 0.2  0.4 0.6 0.3  0.5 0.6 0.2  0.5 0.6 0.3  0.6 0.6 0.2  0.6 0.6 0.3  0.7 0.6 0.2  0.7 0.6 0.3  0.8 0.6 0.2  0.8 0.6 0.3  0.9 0.6 0.2  0.9 0.6 0.3  1 0.6 0.2  1 0.6 0.3  0.1 0.7 0.2  0.1 0.7 0.3  0 0.7 0.2  0 0.7 0.3  0.2 0.7 0.2  0.2 0.7 0.3  0.3 0.7 0.2  0.3 0.7 0.3  0.4 0.7 0.2  0.4 0.7 0.3  0.5 0.7 0.2  0.5 0.7 0.3  0.6 0.7 0.2  0.6 0.7 0.3  0.7 0.7 0.2  0.7 0.7 0.3  0.8 0.7 0.2  0.8 0.7 0.3  0.9 0.7 0.2  0.9 0.7 0.3  1 0.7 0.2  1 0.7 0.3  0.1 0.8 0.2  0.1 0.8 0.3  0 0.8 0.2  0 0.8 0.3  0.2 0.8 0.2  0.2 0.8 0.3  0.3 0.8 0.2  0.3 0.8 0.3  0.4 0.8 0.2  0.4 0.8 0.3  0.5 0.8 0.2  0.5 0.8 0.3  0.6 0.8 0.2  0.6 0.8 0.3  0.7 0.8 0.2  0.7 0.8 0.3  0.8 0.8 0.2  0.8 0.8 0.3  0.9 0.8 0.2  0.9 0.8 0.3  1 0.8 0.2  1 0.8 0.3  0.1 0.3 0.4  0.1 0.2 0.4  0 0.2 0.4  0 0.3 0.4  0.2 0.3 0.4  0.2 0.2 0.4  0.3 0.3 0.4  0.3 0.2 0.4  0.4 0.3 0.4  0.4 0.2 0.4  0.5 0.3 0.4  0.5 0.2 0.4  0.6 0.3 0.4  0.6 0.2 0.4  0.7 0.3 0.4  0.7 0.2 0.4  0.8 0.3 0.4  0.8 0.2 0.4  0.9 0.3 0.4  0.9 0.2 0.4  1 0.3 0.4  1 0.2 0.4  0.1 0.4 0.4  0 0.4 0.4  0.2 0.4 0.4  0.3 0.4 0.4  0.4 0.4 0.4  0.5 0.4 0.4  0.6 0.4 0.4  0.7 0.4 0.4  0.8 0.4 0.4  0.9 0.4 0.4  1 0.4 0.4  0.1 0.5 0.4  0 0.5 0.4  0.2 0.5 0.4  0.3 0.5 0.4  0.4 0.5 0.4  0.5 0.5 0.4  0.6 0.5 0.4  0.7 0.5 0.4  0.8 0.5 0.4  0.9 0.5 0.4  1 0.5 0.4  0.1 0.6 0.4  0 0.6 0.4  0.2 0.6 0.4  0.3 0.6 0.4  0.4 0.6 0.4  0.5 0.6 0.4  0.6 0.6 0.4  0.7 0.6 0.4  0.8 0.6 0.4  0.9 0.6 0.4  1 0.6 0.4  0.1 0.7 0.4  0 0.7 0.4  0.2 0.7 0.4  0.3 0.7 0.4  0.4 0.7 0.4  0.5 0.7 0.4  0.6 0.7 0.4  0.7 0.7 0.4  0.8 0.7 0.4  0.9 0.7 0.4  1 0.7 0.4  0.1 0.8 0.4  0 0.8 0.4  0.2 0.8 0.4  0.3 0.8 0.4  0.4 0.8 0.4  0.5 0.8 0.4  0.6 0.8 0.4  0.7 0.8 0.4  0.8 0.8 0.4  0.9 0.8 0.4  1 0.8 0.4  0.1 0.3 0.5  0.1 0.2 0.5  0 0.2 0.5  0 0.3 0.5  0.2 0.3 0.5  0.2 0.2 0.5  0.3 0.3 0.5  0.3 0.2 0.5  0.4 0.3 0.5  0.4 0.2 0.5  0.5 0.3 0.5  0.5 0.2 0.5  0.6 0.3 0.5  0.6 0.2 0.5  0.7 0.3 0.5  0.7 0.2 0.5  0.8 0.3 0.5  0.8 0.2 0.5  0.9 0.3 0.5  0.9 0.2 0.5  1 0.3 0.5  1 0.2 0.5  0.1 0.4 0.5  0 0.4 0.5  0.2 0.4 0.5  0.3 0.4 0.5  0.4 0.4 0.5  0.5 0.4 0.5  0.6 0.4 0.5  0.7 0.4 0.5  0.8 0.4 0.5  0.9 0.4 0.5  1 0.4 0.5  0.1 0.5 0.5  0 0.5 0.5  0.2 0.5 0.5  0.3 0.5 0.5  0.4 0.5 0.5  0.5 0.5 0.5  0.6 0.5 0.5  0.7 0.5 0.5  0.8 0.5 0.5  0.9 0.5 0.5  1 0.5 0.5  0.1 0.6 0.5  0 0.6 0.5  0.2 0.6 0.5  0.3 0.6 0.5  0.4 0.6 0.5  0.5 0.6 0.5  0.6 0.6 0.5  0.7 0.6 0.5  0.8 0.6 0.5  0.9 0.6 0.5  1 0.6 0.5  0.1 0.7 0.5  0 0.7 0.5  0.2 0.7 0.5  0.3 0.7 0.5  0.4 0.7 0.5  0.5 0.7 0.5  0.6 0.7 0.5  0.7 0.7 0.5  0.8 0.7 0.5  0.9 0.7 0.5  1 0.7 0.5  0.1 0.8 0.5  0 0.8 0.5  0.2 0.8 0.5  0.3 0.8 0.5  0.4 0.8 0.5  0.5 0.8 0.5  0.6 0.8 0.5  0.7 0.8 0.5  0.8 0.8 0.5  0.9 0.8 0.5  1 0.8 0.5  0.1 0.3 0.6  0.1 0.2 0.6  0 0.2 0.6  0 0.3 0.6  0.2 0.3 0.6  0.2 0.2 0.6  0.3 0.3 0.6  0.3 0.2 0.6  0.4 0.3 0.6  0.4 0.2 0.6  0.5 0.3 0.6  0.5 0.2 0.6  0.6 0.3 0.6  0.6 0.2 0.6  0.7 0.3 0.6  0.7 0.2 0.6  0.8 0.3 0.6  0.8 0.2 0.6  0.9 0.3 0.6  0.9 0.2 0.6  1 0.3 0.6  1 0.2 0.6  0.1 0.4 0.6  0 0.4 0.6  0.2 0.4 0.6  0.3 0.4 0.6  0.4 0.4 0.6  0.5 0.4 0.6  0.6 0.4 0.6  0.7 0.4 0.6  0.8 0.4 0.6  0.9 0.4 0.6  1 0.4 0.6  0.1 0.5 0.6  0 0.5 0.6  0.2 0.5 0.6  0.3 0.5 0.6  0.4 0.5 0.6  0.5 0.5 0.6  0.6 0.5 0.6  0.7 0.5 0.6  0.8 0.5 0.6  0.9 0.5 0.6  1 0.5 0.6  0.1 0.6 0.6  0 0.6 0.6  0.2 0.6 0.6  0.3 0.6 0.6  0.4 0.6 0.6  0.5 0.6 0.6  0.6 0.6 0.6  0.7 0.6 0.6  0.8 0.6 0.6  0.9 0.6 0.6  1 0.6 0.6  0.1 0.7 0.6  0 0.7 0.6  0.2 0.7 0.6  0.3 0.7 0.6  0.4 0.7 0.6  0.5 0.7 0.6  0.6 0.7 0.6  0.7 0.7 0.6  0.8 0.7 0.6  0.9 0.7 0.6  1 0.7 0.6  0.1 0.8 0.6  0 0.8 0.6  0.2 0.8 0.6  0.3 0.8 0.6  0.4 0.8 0.6  0.5 0.8 0.6  0.6 0.8 0.6  0.7 0.8 0.6  0.8 0.8 0.6  0.9 0.8 0.6  1 0.8 0.6  0.1 0.3 0.7  0.1 0.2 0.7  0 0.2 0.7  0 0.3 0.7  0.2 0.3 0.7  0.2 0.2 0.7  0.3 0.3 0.7  0.3 0.2 0.7  0.4 0.3 0.7  0.4 0.2 0.7  0.5 0.3 0.7  0.5 0.2 0.7  0.6 0.3 0.7  0.6 0.2 0.7  0.7 0.3 0.7  0.7 0.2 0.7  0.8 0.3 0.7  0.8 0.2 0.7  0.9 0.3 0.7  0.9 0.2 0.7  1 0.3 0.7  1 0.2 0.7  0.1 0.4 0.7  0 0.4 0.7  0.2 0.4 0.7  0.3 0.4 0.7  0.4 0.4 0.7  0.5 0.4 0.7  0.6 0.4 0.7  0.7 0.4 0.7  0.8 0.4 0.7  0.9 0.4 0.7  1 0.4 0.7  0.1 0.5 0.7  0 0.5 0.7  0.2 0.5 0.7  0.3 0.5 0.7  0.4 0.5 0.7  0.5 0.5 0.7  0.6 0.5 0.7  0.7 0.5 0.7  0.8 0.5 0.7  0.9 0.5 0.7  1 0.5 0.7  0.1 0.6 0.7  0 0.6 0.7  0.2 0.6 0.7  0.3 0.6 0.7  0.4 0.6 0.7  0.5 0.6 0.7  0.6 0.6 0.7  0.7 0.6 0.7  0.8 0.6 0.7  0.9 0.6 0.7  1 0.6 0.7  0.1 0.7 0.7  0 0.7 0.7  0.2 0.7 0.7  0.3 0.7 0.7  0.4 0.7 0.7  0.5 0.7 0.7  0.6 0.7 0.7  0.7 0.7 0.7  0.8 0.7 0.7  0.9 0.7 0.7  1 0.7 0.7  0.1 0.8 0.7  0 0.8 0.7  0.2 0.8 0.7  0.3 0.8 0.7  0.4 0.8 0.7  0.5 0.8 0.7  0.6 0.8 0.7  0.7 0.8 0.7  0.8 0.8 0.7  0.9 0.8 0.7  1 0.8 0.7  0.1 0.3 0.8  0.1 0.2 0.8  0 0.2 0.8  0 0.3 0.8  0.2 0.3 0.8  0.2 0.2 0.8  0.3 0.3 0.8  0.3 0.2 0.8  0.4 0.3 0.8  0.4 0.2 0.8  0.5 0.3 0.8  0.5 0.2 0.8  0.6 0.3 0.8  0.6 0.2 0.8  0.7 0.3 0.8  0.7 0.2 0.8  0.8 0.3 0.8  0.8 0.2 0.8  0.9 0.3 0.8  0.9 0.2 0.8  1 0.3 0.8  1 0.2 0.8  0.1 0.4 0.8  0 0.4 0.8  0.2 0.4 0.8  0.3 0.4 0.8  0.4 0.4 0.8  0.5 0.4 0.8  0.6 0.4 0.8  0.7 0.4 0.8  0.8 0.4 0.8  0.9 0.4 0.8  1 0.4 0.8  0.1 0.5 0.8  0 0.5 0.8  0.2 0.5 0.8  0.3 0.5 0.8  0.4 0.5 0.8  0.5 0.5 0.8  0.6 0.5 0.8  0.7 0.5 0.8  0.8 0.5 0.8  0.9 0.5 0.8  1 0.5 0.8  0.1 0.6 0.8  0 0.6 0.8  0.2 0.6 0.8  0.3 0.6 0.8  0.4 0.6 0.8  0.5 0.6 0.8  0.6 0.6 0.8  0.7 0.6 0.8  0.8 0.6 0.8  0.9 0.6 0.8  1 0.6 0.8  0.1 0.7 0.8  0 0.7 0.8  0.2 0.7 0.8  0.3 0.7 0.8  0.4 0.7 0.8  0.5 0.7 0.8  0.6 0.7 0.8  0.7 0.7 0.8  0.8 0.7 0.8  0.9 0.7 0.8  1 0.7 0.8  0.1 0.8 0.8  0 0.8 0.8  0.2 0.8 0.8  0.3 0.8 0.8  0.4 0.8 0.8  0.5 0.8 0.8  0.6 0.8 0.8  0.7 0.8 0.8  0.8 0.8 0.8  0.9 0.8 0.8  1 0.8 0.8  </DataArray>
</Points>
<Cells>
[...]
<PointData  Vectors="f_23"> 
<DataArray  type="Float64"  Name="f_23"  NumberOfComponents="3" format="ascii">7.1881960475888641e-04 1.7523469867601792e-04 -1.0660256242529139e-06  6.4984634891276970e-04 2.5018187385249116e-04 -1.0540856425757901e-05  7.2091914465293111e-04 1.8115296660913536e-04 -3.5806817917835606e-07  7.8639641888368375e-02 2.7472403322660604e-04 5.2151322557119088e-04  6.4242680070811665e-04 2.3910446577011496e-04 -7.6915163113297308e-06  7.0296400225120469e-04 1.6421969823163877e-04 3.2062654051347963e-06  7.8503372331501539e-04 1.2089766769931213e-04 2.8993752157814325e-06  7.7700491809474651e-02 1.0733439393873514e-03 1.3155938488853846e-03  5.5071165170327821e-04 3.8025787320689248e-04 -3.5902467099246315e-05  6.2336051489739631e-04 2.9241214582353243e-04 -1.3082832427848673e-05  7.7943184634490972e-02 6.0518609828576626e-05 2.6950465221938576e-04  5.4576802210459124e-04 3.8780779331994435e-04 -3.4222680949520592e-05  4.1789355981566970e-04 4.8632705796381804e-04 -7.9242751984210413e-05  4.9019544330166243e-04 3.8248118623833519e-04 -3.6717844895255051e-05  7.7855855461034629e-02 -8.3129576200114731e-05 3.5148649401998527e-04  4.0960877667662872e-04 5.3275541518624161e-04 -8.7661141583610761e-05  2.5840448602723246e-04 5.4889445825316390e-04 -1.2862593847615282e-04  3.2091309691270712e-04 4.4051445885015739e-04 -6.7258404687830229e-05  7.7613758592025961e-02 -2.4340818503840807e-04 5.3464202117545158e-04  2.5799167683616855e-04 6.5084152120843566e-04 -1.6339619177010721e-04  5.7685658810999170e-05 5.4123244046943122e-04 -1.5395610340573297e-04  1.0305190678839611e-04 4.4822095514323196e-04 -8.5813124834002144e-05  7.7200227717107980e-02 -4.4268015707847055e-04 7.8442890966700393e-04  9.2839797877998869e-05 7.0403455098732085e-04 -2.3144855745242256e-04  -2.2205277023843939e-04 4.5023334161951422e-04 -1.2238403533012816e-04  -1.9040333382429651e-04 3.9238858629792072e-04 -6.9444356129289112e-05  7.6651155752950312e-02 -6.2026732244563343e-04 1.0182183550910093e-03  -1.2075928040677290e-04 6.4659337584990306e-04 -2.3537131292050578e-04  -6.0433667816162096e-04 3.0197949765210287e-04 -4.5198631311494499e-05  -5.7690790754857816e-04 2.8289838708801069e-04 -2.0909321498072365e-05  7.6267779548568962e-02 -7.2217902607347843e-04 1.0249456468459349e-03  -4.4502349441782386e-04 4.7319990135951214e-04 -1.4284695458590462e-04  -1.0006409545339013e-03 1.5235982571286616e-04 6.6622050814124208e-06  -9.9158225284775334e-04 1.5924335915699605e-04 1.2634509545826376e-05  7.6986296378463256e-02 -7.1831595717353354e-04 3.6942299489186784e-04  -8.6447247195557079e-04 2.5016134183472995e-04 -4.3724490362245719e-05  -1.2400573614799412e-03 5.1461839371577371e-05 -1.1643830092653481e-05  -1.2638915266708611e-03 5.9562280608596082e-05 1.0449709255842220e-05  7.9839938854326359e-02 -5.1159960593181715e-04 -6.9782582242659146e-04  -1.1885863173065252e-03 1.0153902092993527e-04 -3.6567410490068895e-05  -1.3631768257060652e-03 6.7920431418887160e-05 1.7533125560341095e-05  -1.3736514343488102e-03 5.0717889097724516e-05 2.5733034763778220e-05  8.2470172129700606e-02 2.3697127173289188e-04 1.4631055097826034e-03  -1.3438612577227017e-03 8.1849377760244549e-05 -1.3105491477692937e-05  8.2039891268225569e-04 1.1554031727631513e-04 8.1460830818172586e-06  1.1629489964697468e-01 -2.0592665854199114e-04 4.2021809485342691e-04  8.8385249661115147e-04 7.7854691234321277e-05 7.6715847410131392e-06  1.1521400587748547e-01 1.0637588941293972e-03 1.3692389764152438e-03  7.0655189506482394e-04 1.9119421473598409e-04 8.6943530418593187e-06  1.1567576960888784e-01 -2.2842178448429602e-04 2.1704024613903845e-04  5.5250739078050901e-04 2.5474478117830645e-04 3.3912818240258084e-06  1.1543563703947450e-01 -2.7674143956530858e-04 2.1875275924702539e-04  3.4994668820811340e-04 2.9464620119025708e-04 -4.2705530883967421e-06  1.1522670302784130e-01 -3.8752809032837043e-04 2.5258119384133267e-04  8.7318698246495501e-05 2.9951791199063970e-04 -4.6804351411311652e-06  1.1496203297560724e-01 -5.1051520132780373e-04 2.6769229760509116e-04  -2.5039524621209882e-04 2.6284923357273993e-04 1.1957519634352253e-05  1.1472171303644511e-01 -5.5288389288751772e-04 1.8611626628784893e-04  -6.6336087657385820e-04 1.9246916823374493e-04 3.8632987058627005e-05  1.1477083686719075e-01 -4.2500144215054241e-04 -1.1204731110371821e-04  -1.0805473448503270e-03 1.1353836368238152e-04 4.3310756708235322e-05  1.1562362011567986e-01 -1.2869990917022453e-04 -7.0726268054504225e-04  -1.3455989198412567e-03 4.9667028091419040e-05 2.5719544061632361e-05  1.1777828222574122e-01 2.2403586816006375e-04 -1.0257392345413283e-03  -1.4485635279445535e-03 3.7985753370615149e-05 4.6711111815269006e-05  1.2030296546747214e-01 1.0454130225011234e-04 1.5492410899442214e-03  8.8512979591551071e-04 7.1206622073821446e-05 1.2944319941508691e-05  1.2623731545705294e-01 -9.4267866787876444e-05 3.4379080658766597e-04  9.4776927851265066e-04 4.6338000570440595e-05 9.7234415147497110e-06  1.2530332559292817e-01 7.3997171116818139e-04 1.3077486193244776e-03  7.6363978008021417e-04 1.2074682188187007e-04 1.8678250735557537e-05  1.2570033511127054e-01 -2.2476246314278965e-04 1.4776516395398307e-04  5.9343116101930743e-04 1.6251020635337052e-04 2.2525510655822216e-05  1.2544426902929828e-01 -2.2969194985782073e-04 1.3019745133047804e-04  3.6476708536696312e-04 1.8670164727883139e-04 2.6568027067319232e-05  1.2519657853213814e-01 -2.5644658108710412e-04 1.2495706162550901e-04  6.9788866387114507e-05 1.8449272693964113e-04 3.5820321947728730e-05  1.2495241440608401e-01 -2.7908116644961237e-04 8.7411156118354444e-05  -2.9678602157112829e-04 1.5305943144317886e-04 5.3387658529413504e-05  1.2484227326805895e-01 -2.3349349326688644e-04 -4.6694193219900492e-05  -7.2295044723875220e-04 1.0242490509445105e-04 7.0022156949004318e-05  1.2512733921545038e-01 -5.7868771038501982e-05 -3.6328623340282359e-04  -1.1348867355363717e-03 5.5571551010304116e-05 6.0274725510250766e-05  1.2611574600762551e-01 2.2917221009884683e-04 -8.4582233575095848e-04  -1.3940260797447681e-03 2.4647358333928237e-05 3.4443484269394762e-05  1.2791910172025775e-01 4.6661038932236119e-04 -8.5663225549783141e-04  -1.4937000721769163e-03 2.1191066931609781e-05 5.3333642094250889e-05  1.3022875488550606e-01 1.3490900389280110e-04 1.3280497660610718e-03  9.2756937788085133e-04 4.1277740694480405e-05 1.4585382859626874e-05  1.1605845315136509e-01 -7.2790889620342886e-05 2.8825403755893854e-04  9.8669480762572518e-04 2.0615412774279362e-05 1.1074192332621718e-05  1.1521974162408080e-01 4.2774151472867384e-04 1.2150967450156537e-03  8.0452997173895971e-04 7.4891841862096811e-05 2.0779415730177506e-05  1.1560664324111691e-01 -1.4900586883091443e-04 1.1347163344094653e-04  6.2475411421723055e-04 1.0607923396795905e-04 2.6113646585613625e-05  1.1539057620624749e-01 -1.1697830761382572e-04 8.9365393527916616e-05  3.7703964294747582e-04 1.2559857920002240e-04 3.3259650349453193e-05  1.1516179351509331e-01 -7.8732538914998203e-05 7.7104935849709643e-05  5.7702998045952243e-05 1.2531233680881707e-04 4.4552762709875600e-05  1.1494840215094333e-01 -2.8837189544146344e-05 3.6130655823347283e-05  -3.3000314568126766e-04 1.0266523947953811e-04 5.9744420225577686e-05  1.1490238675605377e-01 5.7230045053305771e-05 -8.5443678074127339e-05  -7.6324355131255706e-04 6.5797571793269058e-05 7.0443033386603096e-05  1.1525880916814994e-01 1.9271546260700933e-04 -3.5042050772400080e-04  -1.1647915700052024e-03 3.4444949878350107e-05 5.6903182044451169e-05  1.1621518706711585e-01 3.3482040589923918e-04 -6.9933948972952125e-04  -1.4150644293091821e-03 9.9201585914778711e-06 3.2916145554574796e-05  1.1771560521656113e-01 3.2329587368464576e-04 -5.8151413565236205e-04  -1.5114480606964965e-03 1.6200480016591119e-05 4.6639743981900024e-05  1.1947305523262322e-01 4.5887296753816456e-05 1.1457543633739404e-03  9.6067369190098355e-04 1.8535482608749060e-05 1.4981526199783114e-05  7.9255428530002184e-02 -7.1736660252272281e-05 2.3260719748429171e-04  1.0106179358164138e-03 7.2394773706185955e-06 1.2683379073938589e-05  7.9186200513828534e-02 3.6390685063157353e-04 9.9139592743736926e-04  8.4558911737343887e-04 4.4247124335791234e-05 1.8753832606232310e-05  7.8890981380440317e-02 -3.6328985126171964e-05 8.9332166936350734e-05  6.6711066167091874e-04 7.5120886936840201e-05 1.9276744819918194e-05  7.8765680609591993e-02 7.0989733200602602e-05 6.2275993586632331e-05  4.1125652460973774e-04 1.0146958863713022e-04 2.2808760601771970e-05  7.8643490290753085e-02 1.7352081358138467e-04 5.1303215459863662e-05  7.7425205159151547e-05 1.1350913820464268e-04 3.0747313081365014e-05  7.8522983981827943e-02 2.8503736379077303e-04 1.0295100658150877e-05  -3.2691630625226092e-04 1.0722030336427194e-04 4.1087666903222657e-05  7.8513032850628675e-02 4.0071179027150741e-04 -9.6676790301730708e-05  -7.7397235874777166e-04 8.6066660975177422e-05 4.7706050742072003e-05  7.8772179137624021e-02 4.9713578845062836e-04 -2.9639902329051077e-04  -1.1844166530666799e-03 5.9967407432028718e-05 3.9037427031149434e-05  7.9447881346718513e-02 5.2925048876482895e-04 -5.1266216002322459e-04  -1.4290142796266681e-03 3.1540823660830444e-05 2.4026766840024639e-05  8.0668798871208355e-02 4.4840075313215154e-04 -3.6860846697021204e-04  -1.5183183551477173e-03 2.8988797366772000e-05 2.9386723883348903e-05  8.1309175830674901e-02 -5.0553269517388559e-05 1.0481897232042913e-03  9.9551700076516095e-04 1.1115390980388564e-05 1.4929344624192470e-05  1.0086461150393513e-03 9.6885348014965832e-06 1.0465195757167580e-05  1.0275223345215584e-03 3.0604829510452064e-06 1.0458407722613603e-05  1.0332371235687744e-03 3.3037994110014096e-06 8.6071820548334879e-06  9.0638255272095848e-04 3.6492029494312844e-05 1.7912493659081252e-05  9.3841129202900677e-04 2.5851644868563754e-05 1.6001457238564690e-05  7.5520356315733823e-04 6.4528913550248649e-05 2.2809942468177290e-05  8.1172367953338581e-04 5.6786721468171055e-05 1.6729682826301573e-05  5.3251742782480058e-04 9.2190207043046102e-05 2.2912380256397459e-05  6.1804655898134117e-04 8.8378214616566394e-05 1.7663575038107104e-05  2.3039508634608671e-04 1.0987107658109149e-04 2.4298421420456034e-05  3.4917981430394152e-04 1.1046161170303683e-04 2.2582780765183159e-05  -1.5052276468806826e-04 1.1157121525891119e-04 2.8632736509759115e-05  3.5754671238052270e-06 1.1587180535313894e-04 3.1941421791423259e-05  -5.9540563075530977e-04 9.6695023692111121e-05 3.5166403441448890e-05  -4.1342004678935311e-04 1.0426245820437575e-04 4.3052405136568106e-05  -1.0491976039113066e-03 6.6549518269441824e-05 3.8938510593459249e-05  -8.7022103408432652e-04 8.1733384866935954e-05 4.7811836533474280e-05  -1.3858466689246317e-03 4.0170020731323142e-05 2.4197724031239906e-05  -1.2543367347872209e-03 5.0826117918724601e-05 3.5299346798475328e-05  -1.5097470263758482e-03 3.5527444665050983e-05 1.1544017416402337e-05  -1.4229527744311467e-03 3.7283356813425474e-05 2.3908051467329698e-05  1.1643992647060508e-01 2.0963904997501216e-04 2.0898032375360801e-04  6.3552601080970196e-04 2.3734541918236406e-04 7.7044031739160067e-06  7.0545448684673925e-04 1.5760767944174997e-04 1.5416767445433564e-05  1.1554826375294200e-01 1.0715659309281911e-03 1.0933902561825002e-03  1.1581468860881450e-01 5.4645247187572470e-05 1.5334077993420242e-04  5.1518744940692288e-04 4.0617789465652440e-04 -9.7370709125028545e-06  1.1582335908410582e-01 -9.2136464491621259e-05 3.3053837341339982e-04  3.4634703891570453e-04 5.9909377908090870e-04 -6.2270214091453169e-05  1.1573631672892734e-01 -2.7441418966888911e-04 6.2888316323443671e-04  1.6252879457766259e-04 8.0778926299631662e-04 -1.6209598048334801e-04  1.1544508842969511e-01 -5.5377503059663791e-04 1.0491408565022537e-03  -3.5464224467825855e-06 9.9054796872057125e-04 -2.9777496702616335e-04  1.1480999399369975e-01 -8.8258571323417037e-04 1.4757388426635137e-03  -1.5094342730025809e-04 1.0493225310024511e-03 -3.9568086475633070e-04  1.1376591434858102e-01 -1.0230740196078183e-03 1.5647259485183247e-03  -3.6013315331341183e-04 8.7721942624491495e-04 -3.2611391917157398e-04  1.1365023180981945e-01 -1.0279766053346154e-03 8.0054447431435855e-04  -7.0912009298559344e-04 5.0237475623218439e-04 -1.2946760641119806e-04  1.1770712054879745e-01 -1.0138046598749389e-03 -1.0166218982180202e-03  -1.0668291743945596e-03 2.0426976489782800e-04 -1.1911710984884190e-04  1.2214092053712253e-01 5.3040309262861861e-05 2.3833479882245899e-03  -1.2853692773824089e-03 1.4805481929551864e-04 -1.2092236158727633e-04  1.7517653867698893e-01 -3.0391874943569837e-04 1.7490822798511124e-04  1.7462204559613367e-01 1.1203427664935230e-03 1.1775189072542938e-03  1.7464288254626537e-01 -2.6390982297391254e-04 1.5619727781565634e-04  1.7436002372151377e-01 -3.4418067741609368e-04 2.8772821454377555e-04  1.7421691968809427e-01 -5.4631833148177948e-04 4.3316867567776867e-04  1.7403108496832470e-01 -8.3104924070277427e-04 5.5039146819651900e-04  1.7375214755908799e-01 -1.0666886850289286e-03 4.9015280361081265e-04  1.7352506810089705e-01 -9.7107643192058325e-04 -1.0571260808916989e-05  1.7411266067971265e-01 -3.7411610313958793e-04 -1.1335981052034349e-03  1.7692030018959679e-01 3.7002488844675881e-04 -1.8709506956843390e-03  1.8123931322506151e-01 -2.3597679458351134e-04 2.4704881726439120e-03  1.9183279012798510e-01 -1.4089145269344583e-04 1.2938181189438939e-04  1.9146360853113359e-01 7.7904072288357521e-04 1.1653288191159484e-03  1.9141269365724764e-01 -2.6910602147266422e-04 1.2542949552401208e-04  1.9111018321408221e-01 -2.8592648212661591e-04 2.2866540033466412e-04  1.9090332529308179e-01 -3.6118411349910396e-04 3.1741146250530437e-04  1.9069951861619555e-01 -4.6975213766342188e-04 3.6108208536158145e-04  1.9053691957736116e-01 -5.1551437125845932e-04 2.4867643866346620e-04  1.9067061422150686e-01 -3.3463354505125574e-04 -2.1481207077472475e-04  1.9168376267470352e-01 1.7726043770840657e-04 -1.1468808752086027e-03  1.9405894082545277e-01 7.7401000940833479e-04 -1.4711485155985892e-03  1.9771778092489853e-01 -3.3037001210313915e-05 2.0938784584113189e-03  1.7492814238924626e-01 -1.0309561050272579e-04 1.0118432284692240e-04  1.7467667316089777e-01 4.2991945832692325e-04 1.1104626595423123e-03  1.7459592516712669e-01 -1.8706316276783288e-04 9.9430583922693416e-05  1.7434593483803312e-01 -1.5416919499461416e-04 1.8405434700931799e-04  1.7415490603336645e-01 -1.3046988358713263e-04 2.4951096252235011e-04  1.7397507548292376e-01 -1.1267692159645670e-04 2.7798305832860988e-04  1.7388628693230565e-01 -5.5103071413978020e-05 1.9012394895298840e-04  1.7416764155828576e-01 1.0675237103133006e-04 -1.5490895961116157e-04  1.7524754418379956e-01 3.8749393525283648e-04 -8.4728872352315011e-04  1.7717701314205497e-01 5.6354612278022094e-04 -9.0309608221387648e-04  1.7957353009861468e-01 -1.4588462711064180e-04 1.8405323052596129e-03  1.1625509741215753e-01 -7.8850601719285867e-05 5.1536474495132092e-05  1.1678165880503832e-01 3.6077751975575992e-04 9.5384866037213662e-04  1.1600102645027023e-01 -5.2227114658356052e-05 5.1296476155678869e-05  1.1586022103266033e-01 5.6266011995959774e-05 1.1576956149030290e-04  1.1577748720269065e-01 1.6744050013972996e-04 1.5901000432921479e-04  1.1570461696018729e-01 2.7847523325252990e-04 1.6877034190490386e-04  1.1568245728911344e-01 3.9763360996468650e-04 9.0660073190705222e-05  1.1590513896054359e-01 5.2313130897916878e-04 -1.6919008767324670e-04  1.1670015021633509e-01 6.1371820927273073e-04 -6.0454115250270458e-04  1.1820212146497019e-01 5.6662473405008043e-04 -4.3806578583671960e-04  1.1881548541856544e-01 -1.7560818013855533e-04 1.7382198078480112e-03  1.0184223521636745e-03 1.0417803757213115e-05 3.8016250777611937e-06  1.0421893630698843e-03 5.9156059413178313e-06 6.0508191911236003e-06  9.4740515537170206e-04 2.6299047548017854e-05 1.1026531185491151e-05  8.2025291457219591e-04 5.4896521110225349e-05 1.6566469107160002e-05  6.3357895499806922e-04 8.2673297358599684e-05 2.3369740493677727e-05  3.7540609550442946e-04 1.0262757116323187e-04 3.6078712857231356e-05  4.0109688860765466e-05 1.0680676079983728e-04 5.7299327950300720e-05  -3.7470011611188562e-04 9.3038984310482174e-05 8.3057085889046351e-05  -8.4891423774665308e-04 6.8304678663440890e-05 9.6320487983868130e-05  -1.2645125718612317e-03 3.8254752368114780e-05 7.5650783019431706e-05  -1.4431693317231101e-03 2.3121094497313414e-05 6.2871358747871797e-05  1.2649929375748614e-01 1.9652971195766801e-04 1.0793318753898731e-04  6.4465914445272063e-04 2.1860268935022109e-04 3.1755883700288574e-05  7.2311138268087583e-04 1.4011895997533862e-04 2.8536887092114656e-05  1.2565401812016616e-01 1.0956624716453331e-03 8.6708201882476925e-04  1.2594291762518073e-01 1.8219446340874708e-05 1.4598041433888680e-05  5.0283020069696448e-04 3.8871657298208056e-04 4.2608593834037366e-05  1.2607235218566087e-01 -1.2526996580117619e-04 1.1964414042105640e-04  2.9548659181408843e-04 6.1193013444137015e-04 2.3503263927629722e-05  1.2609529092190241e-01 -3.1814845533685706e-04 3.4227293606829142e-04  5.1418898193927717e-05 9.1261025740158725e-04 -5.6145077337330948e-05  1.2590971698044362e-01 -6.8418552342903224e-04 7.4681068426882724e-04  -1.7274098462861934e-04 1.2902842614781855e-03 -2.3278224900999549e-04  1.2531666285139045e-01 -1.3479505985226389e-03 1.3111575451962712e-03  -3.1333375278730233e-04 1.6431848776849909e-03 -4.9181543452028016e-04  1.2388613010149557e-01 -2.0496275119234460e-03 1.6883739836574044e-03  -3.9802506270018926e-04 1.7067282729021050e-03 -6.3365977714741637e-04  1.2207979103079078e-01 -1.4131553207835318e-03 1.1899030746132281e-03  -5.0395254639306589e-04 1.2115832040678915e-03 -2.6303209386200032e-04  1.2708813092162277e-01 -1.3101453456444213e-03 -4.1225189743746574e-04  -7.2944241090878330e-04 5.3636373477885396e-04 -1.9855094401116999e-04  1.3754621945158380e-01 -1.4677484865640239e-03 4.2420411584015239e-03  -9.1783763785153148e-04 3.6846312489248478e-04 -5.2518811344299003e-04  1.9193621400545258e-01 -3.1920874722347203e-04 1.4903066046195493e-04  1.9142608820625465e-01 1.1390106654372576e-03 9.3720355182667448e-04  1.9146311518858919e-01 -2.7831774941902140e-04 7.6764369794885318e-05  1.9123230126594798e-01 -3.7406324927229925e-04 1.8418504538463955e-04  1.9109502739328907e-01 -6.3350459554132178e-04 3.3375329859785765e-04  1.9087252750484382e-01 -1.0867667815984026e-03 4.8434763433383529e-04  1.9047918585386076e-01 -1.6938374957746073e-03 4.7453244591275063e-04  1.8993258213182099e-01 -1.9674242861507166e-03 -7.2864249155660675e-05  1.9011266586792042e-01 -8.6993863119019669e-04 -1.4960426233833091e-03  1.9374050727127762e-01 1.2177000527956036e-03 -3.3615609544113650e-03  2.0148054830639844e-01 -7.5302137791544903e-04 3.6623472627071987e-03  2.1087302271731703e-01 -1.6159832600325951e-04 1.3049231929304213e-04  2.1054902998831959e-01 7.7919603944954282e-04 9.4768547040000191e-04  2.1052286092715150e-01 -2.8183173361722141e-04 6.7722581164142553e-05  2.1026032811963466e-01 -3.0959680173551899e-04 1.5123952339704579e-04  2.1005910996067115e-01 -4.2318009272119498e-04 2.3950411916558886e-04  2.0981357107406901e-01 -6.1789871973981633e-04 2.8958524897543697e-04  2.0949236208918876e-01 -7.9727404670195269e-04 1.9292805785045745e-04  2.0928852536767706e-01 -6.6145784616766356e-04 -2.5220752420479839e-04  2.1026238278317069e-01 2.1530342801088679e-04 -1.2448514891601455e-03  2.1372533389209897e-01 1.5297457111447170e-03 -2.6499672595419691e-03  2.1962319664131766e-01 -2.1101379129926889e-04 2.7587919349333014e-03  1.9171747474264836e-01 -1.2119570656835535e-04 1.1313202406426501e-04  1.9151817526055928e-01 4.1338050609066230e-04 9.2742447441467317e-04  1.9145555672248454e-01 -1.9695117421589077e-04 5.0459247364745236e-05  1.9124714796368963e-01 -1.6182912367983848e-04 1.1830421818454949e-04  1.9106550028535529e-01 -1.5229988163054163e-04 1.8120812073750320e-04  1.9085748853552478e-01 -1.6100563464042293e-04 2.1061698332