<?xml version="1.0"?>
<VTKFile type="UnstructuredGrid"  version="0.1"  >
<UnstructuredGrid>
<Piece  NumberOfPoints="539" NumberOfCells="2160">
<Points>
<DataArray  type="Float64"  NumberOfComponents="3"  format="ascii">0 0.2 0.2  0.1 0.2 0.2  0.1 0.3 0.2  0.1 0.3 0.3  0.1 0.2 0.3  0 0.2 0.3  0 0.3 0.2  0 0.3 0.3  0.2 0.2 0.2  0.2 0.3 0.2  0.2 0.3 0.3  0.2 0.2 0.3  0.3 0.2 0.2  0.3 0.3 0.2  0.3 0.3 0.3  0.3 0.2 0.3  0.4 0.2 0.2  0.4 0.3 0.2  0.4 0.3 0.3  0.4 0.2 0.3  0.5 0.2 0.2  0.5 0.3 0.2  0.5 0.3 0.3  0.5 0.2 0.3  0.6 0.2 0.2  0.6 0.3 0.2  0.6 0.3 0.3  0.6 0.2 0.3  0.7 0.2 0.2  0.7 0.3 0.2  0.7 0.3 0.3  0.7 0.2 0.3  0.8 0.2 0.2  0.8 0.3 0.2  0.8 0.3 0.3  0.8 0.2 0.3  0.9 0.2 0.2  0.9 0.3 0.2  0.9 0.3 0.3  0.9 0.2 0.3  1 0.2 0.2  1 0.3 0.2  1 0.3 0.3  1 0.2 0.3  0.1 0.4 0.2  0.1 0.4 0.3  0 0.4 0.2  0 0.4 0.3  0.2 0.4 0.2  0.2 0.4 0.3  0.3 0.4 0.2  0.3 0.4 0.3  0.4 0.4 0.2  0.4 0.4 0.3  0.5 0.4 0.2  0.5 0.4 0.3  0.6 0.4 0.2  0.6 0.4 0.3  0.7 0.4 0.2  0.7 0.4 0.3  0.8 0.4 0.2  0.8 0.4 0.3  0.9 0.4 0.2  0.9 0.4 0.3  1 0.4 0.2  1 0.4 0.3  0.1 0.5 0.2  0.1 0.5 0.3  0 0.5 0.2  0 0.5 0.3  0.2 0.5 0.2  0.2 0.5 0.3  0.3 0.5 0.2  0.3 0.5 0.3  0.4 0.5 0.2  0.4 0.5 0.3  0.5 0.5 0.2  0.5 0.5 0.3  0.6 0.5 0.2  0.6 0.5 0.3  0.7 0.5 0.2  0.7 0.5 0.3  0.8 0.5 0.2  0.8 0.5 0.3  0.9 0.5 0.2  0.9 0.5 0.3  1 0.5 0.2  1 0.5 0.3  0.1 0.6 0.2  0.1 0.6 0.3  0 0.6 0.2  0 0.6 0.3  0.2 0.6 0.2  0.2 0.6 0.3  0.3 0.6 0.2  0.3 0.6 0.3  0.4 0.6 0.2  0.4 0.6 0.3  0.5 0.6 0.2  0.5 0.6 0.3  0.6 0.6 0.2  0.6 0.6 0.3  0.7 0.6 0.2  0.7 0.6 0.3  0.8 0.6 0.2  0.8 0.6 0.3  0.9 0.6 0.2  0.9 0.6 0.3  1 0.6 0.2  1 0.6 0.3  0.1 0.7 0.2  0.1 0.7 0.3  0 0.7 0.2  0 0.7 0.3  0.2 0.7 0.2  0.2 0.7 0.3  0.3 0.7 0.2  0.3 0.7 0.3  0.4 0.7 0.2  0.4 0.7 0.3  0.5 0.7 0.2  0.5 0.7 0.3  0.6 0.7 0.2  0.6 0.7 0.3  0.7 0.7 0.2  0.7 0.7 0.3  0.8 0.7 0.2  0.8 0.7 0.3  0.9 0.7 0.2  0.9 0.7 0.3  1 0.7 0.2  1 0.7 0.3  0.1 0.8 0.2  0.1 0.8 0.3  0 0.8 0.2  0 0.8 0.3  0.2 0.8 0.2  0.2 0.8 0.3  0.3 0.8 0.2  0.3 0.8 0.3  0.4 0.8 0.2  0.4 0.8 0.3  0.5 0.8 0.2  0.5 0.8 0.3  0.6 0.8 0.2  0.6 0.8 0.3  0.7 0.8 0.2  0.7 0.8 0.3  0.8 0.8 0.2  0.8 0.8 0.3  0.9 0.8 0.2  0.9 0.8 0.3  1 0.8 0.2  1 0.8 0.3  0.1 0.3 0.4  0.1 0.2 0.4  0 0.2 0.4  0 0.3 0.4  0.2 0.3 0.4  0.2 0.2 0.4  0.3 0.3 0.4  0.3 0.2 0.4  0.4 0.3 0.4  0.4 0.2 0.4  0.5 0.3 0.4  0.5 0.2 0.4  0.6 0.3 0.4  0.6 0.2 0.4  0.7 0.3 0.4  0.7 0.2 0.4  0.8 0.3 0.4  0.8 0.2 0.4  0.9 0.3 0.4  0.9 0.2 0.4  1 0.3 0.4  1 0.2 0.4  0.1 0.4 0.4  0 0.4 0.4  0.2 0.4 0.4  0.3 0.4 0.4  0.4 0.4 0.4  0.5 0.4 0.4  0.6 0.4 0.4  0.7 0.4 0.4  0.8 0.4 0.4  0.9 0.4 0.4  1 0.4 0.4  0.1 0.5 0.4  0 0.5 0.4  0.2 0.5 0.4  0.3 0.5 0.4  0.4 0.5 0.4  0.5 0.5 0.4  0.6 0.5 0.4  0.7 0.5 0.4  0.8 0.5 0.4  0.9 0.5 0.4  1 0.5 0.4  0.1 0.6 0.4  0 0.6 0.4  0.2 0.6 0.4  0.3 0.6 0.4  0.4 0.6 0.4  0.5 0.6 0.4  0.6 0.6 0.4  0.7 0.6 0.4  0.8 0.6 0.4  0.9 0.6 0.4  1 0.6 0.4  0.1 0.7 0.4  0 0.7 0.4  0.2 0.7 0.4  0.3 0.7 0.4  0.4 0.7 0.4  0.5 0.7 0.4  0.6 0.7 0.4  0.7 0.7 0.4  0.8 0.7 0.4  0.9 0.7 0.4  1 0.7 0.4  0.1 0.8 0.4  0 0.8 0.4  0.2 0.8 0.4  0.3 0.8 0.4  0.4 0.8 0.4  0.5 0.8 0.4  0.6 0.8 0.4  0.7 0.8 0.4  0.8 0.8 0.4  0.9 0.8 0.4  1 0.8 0.4  0.1 0.3 0.5  0.1 0.2 0.5  0 0.2 0.5  0 0.3 0.5  0.2 0.3 0.5  0.2 0.2 0.5  0.3 0.3 0.5  0.3 0.2 0.5  0.4 0.3 0.5  0.4 0.2 0.5  0.5 0.3 0.5  0.5 0.2 0.5  0.6 0.3 0.5  0.6 0.2 0.5  0.7 0.3 0.5  0.7 0.2 0.5  0.8 0.3 0.5  0.8 0.2 0.5  0.9 0.3 0.5  0.9 0.2 0.5  1 0.3 0.5  1 0.2 0.5  0.1 0.4 0.5  0 0.4 0.5  0.2 0.4 0.5  0.3 0.4 0.5  0.4 0.4 0.5  0.5 0.4 0.5  0.6 0.4 0.5  0.7 0.4 0.5  0.8 0.4 0.5  0.9 0.4 0.5  1 0.4 0.5  0.1 0.5 0.5  0 0.5 0.5  0.2 0.5 0.5  0.3 0.5 0.5  0.4 0.5 0.5  0.5 0.5 0.5  0.6 0.5 0.5  0.7 0.5 0.5  0.8 0.5 0.5  0.9 0.5 0.5  1 0.5 0.5  0.1 0.6 0.5  0 0.6 0.5  0.2 0.6 0.5  0.3 0.6 0.5  0.4 0.6 0.5  0.5 0.6 0.5  0.6 0.6 0.5  0.7 0.6 0.5  0.8 0.6 0.5  0.9 0.6 0.5  1 0.6 0.5  0.1 0.7 0.5  0 0.7 0.5  0.2 0.7 0.5  0.3 0.7 0.5  0.4 0.7 0.5  0.5 0.7 0.5  0.6 0.7 0.5  0.7 0.7 0.5  0.8 0.7 0.5  0.9 0.7 0.5  1 0.7 0.5  0.1 0.8 0.5  0 0.8 0.5  0.2 0.8 0.5  0.3 0.8 0.5  0.4 0.8 0.5  0.5 0.8 0.5  0.6 0.8 0.5  0.7 0.8 0.5  0.8 0.8 0.5  0.9 0.8 0.5  1 0.8 0.5  0.1 0.3 0.6  0.1 0.2 0.6  0 0.2 0.6  0 0.3 0.6  0.2 0.3 0.6  0.2 0.2 0.6  0.3 0.3 0.6  0.3 0.2 0.6  0.4 0.3 0.6  0.4 0.2 0.6  0.5 0.3 0.6  0.5 0.2 0.6  0.6 0.3 0.6  0.6 0.2 0.6  0.7 0.3 0.6  0.7 0.2 0.6  0.8 0.3 0.6  0.8 0.2 0.6  0.9 0.3 0.6  0.9 0.2 0.6  1 0.3 0.6  1 0.2 0.6  0.1 0.4 0.6  0 0.4 0.6  0.2 0.4 0.6  0.3 0.4 0.6  0.4 0.4 0.6  0.5 0.4 0.6  0.6 0.4 0.6  0.7 0.4 0.6  0.8 0.4 0.6  0.9 0.4 0.6  1 0.4 0.6  0.1 0.5 0.6  0 0.5 0.6  0.2 0.5 0.6  0.3 0.5 0.6  0.4 0.5 0.6  0.5 0.5 0.6  0.6 0.5 0.6  0.7 0.5 0.6  0.8 0.5 0.6  0.9 0.5 0.6  1 0.5 0.6  0.1 0.6 0.6  0 0.6 0.6  0.2 0.6 0.6  0.3 0.6 0.6  0.4 0.6 0.6  0.5 0.6 0.6  0.6 0.6 0.6  0.7 0.6 0.6  0.8 0.6 0.6  0.9 0.6 0.6  1 0.6 0.6  0.1 0.7 0.6  0 0.7 0.6  0.2 0.7 0.6  0.3 0.7 0.6  0.4 0.7 0.6  0.5 0.7 0.6  0.6 0.7 0.6  0.7 0.7 0.6  0.8 0.7 0.6  0.9 0.7 0.6  1 0.7 0.6  0.1 0.8 0.6  0 0.8 0.6  0.2 0.8 0.6  0.3 0.8 0.6  0.4 0.8 0.6  0.5 0.8 0.6  0.6 0.8 0.6  0.7 0.8 0.6  0.8 0.8 0.6  0.9 0.8 0.6  1 0.8 0.6  0.1 0.3 0.7  0.1 0.2 0.7  0 0.2 0.7  0 0.3 0.7  0.2 0.3 0.7  0.2 0.2 0.7  0.3 0.3 0.7  0.3 0.2 0.7  0.4 0.3 0.7  0.4 0.2 0.7  0.5 0.3 0.7  0.5 0.2 0.7  0.6 0.3 0.7  0.6 0.2 0.7  0.7 0.3 0.7  0.7 0.2 0.7  0.8 0.3 0.7  0.8 0.2 0.7  0.9 0.3 0.7  0.9 0.2 0.7  1 0.3 0.7  1 0.2 0.7  0.1 0.4 0.7  0 0.4 0.7  0.2 0.4 0.7  0.3 0.4 0.7  0.4 0.4 0.7  0.5 0.4 0.7  0.6 0.4 0.7  0.7 0.4 0.7  0.8 0.4 0.7  0.9 0.4 0.7  1 0.4 0.7  0.1 0.5 0.7  0 0.5 0.7  0.2 0.5 0.7  0.3 0.5 0.7  0.4 0.5 0.7  0.5 0.5 0.7  0.6 0.5 0.7  0.7 0.5 0.7  0.8 0.5 0.7  0.9 0.5 0.7  1 0.5 0.7  0.1 0.6 0.7  0 0.6 0.7  0.2 0.6 0.7  0.3 0.6 0.7  0.4 0.6 0.7  0.5 0.6 0.7  0.6 0.6 0.7  0.7 0.6 0.7  0.8 0.6 0.7  0.9 0.6 0.7  1 0.6 0.7  0.1 0.7 0.7  0 0.7 0.7  0.2 0.7 0.7  0.3 0.7 0.7  0.4 0.7 0.7  0.5 0.7 0.7  0.6 0.7 0.7  0.7 0.7 0.7  0.8 0.7 0.7  0.9 0.7 0.7  1 0.7 0.7  0.1 0.8 0.7  0 0.8 0.7  0.2 0.8 0.7  0.3 0.8 0.7  0.4 0.8 0.7  0.5 0.8 0.7  0.6 0.8 0.7  0.7 0.8 0.7  0.8 0.8 0.7  0.9 0.8 0.7  1 0.8 0.7  0.1 0.3 0.8  0.1 0.2 0.8  0 0.2 0.8  0 0.3 0.8  0.2 0.3 0.8  0.2 0.2 0.8  0.3 0.3 0.8  0.3 0.2 0.8  0.4 0.3 0.8  0.4 0.2 0.8  0.5 0.3 0.8  0.5 0.2 0.8  0.6 0.3 0.8  0.6 0.2 0.8  0.7 0.3 0.8  0.7 0.2 0.8  0.8 0.3 0.8  0.8 0.2 0.8  0.9 0.3 0.8  0.9 0.2 0.8  1 0.3 0.8  1 0.2 0.8  0.1 0.4 0.8  0 0.4 0.8  0.2 0.4 0.8  0.3 0.4 0.8  0.4 0.4 0.8  0.5 0.4 0.8  0.6 0.4 0.8  0.7 0.4 0.8  0.8 0.4 0.8  0.9 0.4 0.8  1 0.4 0.8  0.1 0.5 0.8  0 0.5 0.8  0.2 0.5 0.8  0.3 0.5 0.8  0.4 0.5 0.8  0.5 0.5 0.8  0.6 0.5 0.8  0.7 0.5 0.8  0.8 0.5 0.8  0.9 0.5 0.8  1 0.5 0.8  0.1 0.6 0.8  0 0.6 0.8  0.2 0.6 0.8  0.3 0.6 0.8  0.4 0.6 0.8  0.5 0.6 0.8  0.6 0.6 0.8  0.7 0.6 0.8  0.8 0.6 0.8  0.9 0.6 0.8  1 0.6 0.8  0.1 0.7 0.8  0 0.7 0.8  0.2 0.7 0.8  0.3 0.7 0.8  0.4 0.7 0.8  0.5 0.7 0.8  0.6 0.7 0.8  0.7 0.7 0.8  0.8 0.7 0.8  0.9 0.7 0.8  1 0.7 0.8  0.1 0.8 0.8  0 0.8 0.8  0.2 0.8 0.8  0.3 0.8 0.8  0.4 0.8 0.8  0.5 0.8 0.8  0.6 0.8 0.8  0.7 0.8 0.8  0.8 0.8 0.8  0.9 0.8 0.8  1 0.8 0.8  </DataArray>
</Points>
<Cells>
[...]
<PointData  Vectors="f_23"> 
<DataArray  type="Float64"  Name="f_23"  NumberOfComponents="3" format="ascii">7.7471315034122938e-04 2.0537631037112955e-04 3.0412909475673667e-06  6.9591127015914398e-04 2.9510935560835450e-04 -7.3644228081832207e-06  7.7850943149809413e-04 2.1283726395564077e-04 4.3861656717674747e-06  7.9449744839383482e-02 3.1683769911543952e-04 5.5333636258096436e-04  6.8757204528625761e-04 2.8203610639226939e-04 -3.2502888182123896e-06  7.5822262842202743e-04 1.9272058109677349e-04 8.4088791618339939e-06  8.5145013692685496e-04 1.4080689112313532e-04 7.6307346276931347e-06  7.8439162539419627e-02 1.3247221824899272e-03 1.3915711795177154e-03  5.8625381661642532e-04 4.4928328217924625e-04 -3.6998249173689210e-05  6.7017593524978003e-04 3.4443931884223542e-04 -9.5986849949023650e-06  7.8654725416840626e-02 7.3576480894179744e-05 2.9550080425517513e-04  5.7807463429662936e-04 4.5889857434472245e-04 -3.3455790029487052e-05  4.4151594046787265e-04 5.7487415960238953e-04 -9.0045271574433686e-05  5.2400779716535006e-04 4.5115072108874269e-04 -3.8458447706716565e-05  7.8552040630285896e-02 -9.6419762916291556e-05 3.8760702762993913e-04  4.2625564575166075e-04 6.3133058344339488e-04 -9.8603627956665946e-05  2.7175611248376612e-04 6.4809945138729664e-04 -1.5301443766406605e-04  3.4089958897358808e-04 5.1937240758166833e-04 -7.7869267540495030e-05  7.8280894216353245e-02 -2.8398824494157597e-04 5.9054240972158695e-04  2.6190846655697110e-04 7.7113177402271960e-04 -1.9448826001425900e-04  6.2883872717425440e-05 6.3731469325831115e-04 -1.9052805370151492e-04  1.0926329170512619e-04 5.2734890767259211e-04 -1.0599059760754780e-04  7.7815327895201389e-02 -5.1343291813634785e-04 8.6955089629429374e-04  9.1418836897720962e-05 8.3256157662538546e-04 -2.8618344099076633e-04  -2.2819246717098235e-04 5.2757410799922301e-04 -1.6209755585406998e-04  -2.0037312987804333e-04 4.5972980669371029e-04 -9.4682585971812765e-05  7.7188935300551514e-02 -7.1462981684834910e-04 1.1358499595063175e-03  -1.2252839665241827e-04 7.6189464148732381e-04 -3.0527951110604550e-04  -6.3521564640989074e-04 3.5091179757518854e-04 -7.4689995751395011e-05  -6.1197328942536034e-04 3.2903902844396197e-04 -4.2135665627326527e-05  7.6740255721914771e-02 -8.2993845648420450e-04 1.1639794699956701e-03  -4.5658138866652069e-04 5.5466667814256434e-04 -2.0561610696877872e-04  -1.0729627393393610e-03 1.7524052876487429e-04 -6.7405457331723618e-06  -1.0650361403611000e-03 1.8311073933651174e-04 1.8674477736276564e-06  7.7549402070062695e-02 -8.2811029002769192e-04 4.6146716108745790e-04  -9.1021645079026182e-04 2.9212147746031879e-04 -7.7997845999107552e-05  -1.3505623025058255e-03 5.9015236570435784e-05 -1.9331699333615375e-05  -1.3763751675017187e-03 6.8072529730156910e-05 4.9036042989310494e-06  8.0848682139523703e-02 -6.0405209064347590e-04 -7.8423717148458621e-04  -1.2794417883512366e-03 1.1712389835211561e-04 -5.3922824948050087e-05  -1.4945927585529684e-03 7.5146836002418362e-05 9.4012061659699740e-06  -1.5079380265088259e-03 5.6801239611241710e-05 2.1057243553308328e-05  8.3774093982641101e-02 2.4893892315461534e-04 1.5728045565164240e-03  -1.4651201223513728e-03 9.3407421049286930e-05 -2.8901491622263379e-05  8.9575342206560512e-04 1.3502999583620294e-04 1.4458846058220124e-05  1.1651992832511006e-01 -2.4627088463977564e-04 4.2616746655179679e-04  9.6706334210173962e-04 9.0162176872636215e-05 1.3109148737908536e-05  1.1536843072676779e-01 1.3117208433332031e-03 1.4261604801828558e-03  7.6903343378952288e-04 2.2442551593936127e-04 1.6411531704089353e-05  1.1582260362792852e-01 -2.6630776537847986e-04 2.3428298068525234e-04  5.9773025338502519e-04 2.9994131365908446e-04 9.8868407804858726e-06  1.1553769890772249e-01 -3.2068005581956273e-04 2.2661824626841689e-04  3.7467689052294293e-04 3.4738434174853513e-04 -1.7560836053449848e-06  1.1530672348295663e-01 -4.4911971520995809e-04 2.4995463957607243e-04  8.9402456302315034e-05 3.5319691539734089e-04 -7.8158751468252272e-06  1.1501840087182236e-01 -5.8713796343927741e-04 2.5217166823788081e-04  -2.7302975879980195e-04 3.0948976627374566e-04 4.0905206665301726e-06  1.1475120506762211e-01 -6.2693341892101071e-04 1.5134368364683979e-04  -7.1536904129019597e-04 2.2535298886179234e-04 3.0383117794656208e-05  1.1479130564908362e-01 -4.7080639066953388e-04 -1.7085264254532663e-04  -1.1696453265270486e-03 1.3126925096482639e-04 3.9197881501480233e-05  1.1572139115314925e-01 -1.2882367076035242e-04 -7.9786771042591564e-04  -1.4704401121525970e-03 5.7098877606646434e-05 2.3357942481187573e-05  1.1816350017691610e-01 2.7142614282162710e-04 -1.1695358962147142e-03  -1.5932484296993993e-03 4.3280821000541354e-05 4.5682772862357284e-05  1.2096375974800681e-01 1.6894612345309365e-04 1.6875178143803370e-03  9.7209992959012604e-04 8.3609384494491386e-05 1.9839355591645235e-05  1.2647054961888443e-01 -1.1148577081103560e-04 3.4085281227305708e-04  1.0417385200577798e-03 5.4066066174981788e-05 1.5173599334633321e-05  1.2550250540437033e-01 8.9714852712255303e-04 1.3581634831116901e-03  8.3716283512757291e-04 1.4237348447876074e-04 2.8110466224276620e-05  1.2587339009527729e-01 -2.6151909968511920e-04 1.5454581688117825e-04  6.4677222099228512e-04 1.9246483272010686e-04 3.2691176091100065e-05  1.2557276216438065e-01 -2.6443317830088817e-04 1.2234889552181511e-04  3.9280216303462783e-04 2.2205608766179006e-04 3.5230696540207084e-05  1.2529504951080953e-01 -2.9337931788226562e-04 1.0048428817988456e-04  6.8978126403558345e-05 2.2068504829362713e-04 4.1010202130484227e-05  1.2502890190214633e-01 -3.1536827739413474e-04 4.3836628645449836e-05  -3.2833722457422895e-04 1.8448915993160011e-04 5.4396063882060373e-05  1.2491091630679246e-01 -2.5638774083716295e-04 -1.1444509759697394e-04  -7.8706829719627359e-04 1.2407342614330344e-04 6.8685628543503199e-05  1.2522088370057252e-01 -4.8707708110725200e-05 -4.5615779061802423e-04  -1.2348456455166393e-03 6.6204617408456559e-05 5.9805194066845487e-05  1.2630214169602119e-01 2.8229299757686217e-04 -9.5776820104130731e-04  -1.5269129338651758e-03 2.9168840403085582e-05 3.3992845514913166e-05  1.2833156559412381e-01 5.6027206022970448e-04 -9.8167474688557062e-04  -1.6445819267359742e-03 2.4137063610116953e-05 5.3487355201660231e-05  1.3090202553827773e-01 2.1119982057735148e-04 1.4418439759991968e-03  1.0223226195057531e-03 4.9163177782648144e-05 2.1263875554856105e-05  1.1625411404871912e-01 -8.0966787766911569e-05 2.8064855966486300e-04  1.0875986298156429e-03 2.5338526183405536e-05 1.6116634770785790e-05  1.1539033275730445e-01 5.1621079796014850e-04 1.2619683226006589e-03  8.8595916933180560e-04 8.9330658080408242e-05 3.0200485501207419e-05  1.1575461909807649e-01 -1.6719143004531988e-04 1.1322071509065362e-04  6.8452331599825049e-04 1.2682985351548394e-04 3.6732329596196961e-05  1.1550068661426677e-01 -1.2942103049183956e-04 7.3977597215087849e-05  4.0839688386625232e-04 1.5096073014409542e-04 4.3157604047764600e-05  1.1524437216932512e-01 -8.2869016503892270e-05 4.5243694422051275e-05  5.5850107615207119e-05 1.5222979194612509e-04 5.1824885971560402e-05  1.1501309548412011e-01 -2.1348436356623242e-05 -1.3228928696844922e-05  -3.6737315579744157e-04 1.2705980538955488e-04 6.3219817398922656e-05  1.1496818492577027e-01 8.2440548480148631e-05 -1.5431857931292060e-04  -8.3639528405182880e-04 8.3409295960336290e-05 7.0958303695496005e-05  1.1536127862224359e-01 2.4139492630445607e-04 -4.3624527485702563e-04  -1.2729866277605322e-03 4.3137610424843868e-05 5.7077628673227391e-05  1.1641380601759158e-01 4.0387476606955466e-04 -7.9302281849696725e-04  -1.5528290262784865e-03 1.2977157421649029e-05 3.2981057770530955e-05  1.1810647934402847e-01 3.9368174743257270e-04 -6.7846856138928521e-04  -1.6647589517279310e-03 1.7984129384805881e-05 4.6653526464173324e-05  1.2005603872241138e-01 1.0042848900080916e-04 1.2174902222208681e-03  1.0609622770552149e-03 2.3238868094153995e-05 2.1315211746828522e-05  7.9996073014263425e-02 -8.1601409829545389e-05 2.2695256053773764e-04  1.1157419920555620e-03 9.8164201101789383e-06 1.7187192582467514e-05  7.9923428896453555e-02 3.8064029639745510e-04 1.0375996528385614e-03  9.3369741524688629e-04 5.3748544395785356e-05 2.7713549685270876e-05  7.9594316503779683e-02 -3.6831040584091162e-05 8.6581974651754313e-05  7.3381407158960258e-04 9.0045960779556889e-05 2.9305886570815654e-05  7.9444880778983124e-02 8.4848024582870975e-05 4.7348340999713358e-05  4.4825013256402581e-04 1.2141758939210529e-04 3.2156224595576649e-05  7.9308907854868355e-02 2.0359547564109727e-04 2.4262013536089492e-05  7.8591166542525749e-05 1.3660745249548131e-04 3.7681765600598069e-05  7.9182308207926322e-02 3.3378916964159263e-04 -3.0524226752587879e-05  -3.6476927830893366e-04 1.3041541027978518e-04 4.4311617497019510e-05  7.9180646738767624e-02 4.6874966886702722e-04 -1.5274516189671701e-04  -8.5142744984120626e-04 1.0566377535293897e-04 4.7630660006652585e-05  7.9471328989713430e-02 5.8103430184663278e-04 -3.6445488536283595e-04  -1.2994727682970686e-03 7.2762589474944869e-05 3.8259884566643153e-05  8.0218902474875745e-02 6.1812730412966687e-04 -5.8587855623767600e-04  -1.5711084993194238e-03 3.7115573450495104e-05 2.3894801973325092e-05  8.1614108443384722e-02 5.1505424435924359e-04 -4.4238215898648317e-04  -1.6728926059441191e-03 3.2107111250849641e-05 2.8804097657666348e-05  8.2389529739913717e-02 -4.7426619611332480e-05 1.0949182119548684e-03  1.0988858563800387e-03 1.4574413525795070e-05 1.9976513022827209e-05  1.1137235592660192e-03 1.2173639820431662e-05 1.4844547859444689e-05  1.1318463536056887e-03 5.7879139480584769e-06 1.3464178050958040e-05  1.1396237063841569e-03 5.7392547142359623e-06 1.1709488003478304e-05  1.0017465548334075e-03 4.4350297954416165e-05 2.5709698920326803e-05  1.0359456713898236e-03 3.1963423688788696e-05 2.3855617431387320e-05  8.3277272274078201e-04 7.7230852744696908e-05 3.2908577551077212e-05  8.9504581951354906e-04 6.7916751290940353e-05 2.6619895458079350e-05  5.8361382052119404e-04 1.0975415342595264e-04 3.3620282531551499e-05  6.7813260448283859e-04 1.0501995183923722e-04 2.7883179177919064e-05  2.4789574428478689e-04 1.3111018920908230e-04 3.3920741454597901e-05  3.7829259985338264e-04 1.3163458986002459e-04 3.1294124234785933e-05  -1.7129274317942791e-04 1.3395979920195547e-04 3.5700389845734769e-05  -3.4241534335762011e-06 1.3920223484384570e-04 3.7338951935413743e-05  -6.5625277478158542e-04 1.1664100005038764e-04 3.9006365207600041e-05  -4.5876354826824401e-04 1.2638338611964151e-04 4.4326195327427127e-05  -1.1499278003927063e-03 8.0396038770597851e-05 4.0374424496175268e-05  -9.5407642477353372e-04 9.8894350094117981e-05 4.6421437337078473e-05  -1.5235871736769087e-03 4.7666127691299213e-05 2.3883124314931834e-05  -1.3749001160773342e-03 6.0601746405287537e-05 3.3768615863064335e-05  -1.6644055256754323e-03 3.9492642300888373e-05 1.0311941048566409e-05  -1.5623797274940746e-03 4.1707226199236370e-05 2.2334029581243220e-05  1.1669956561963933e-01 2.4248483551688797e-04 2.0737752450433167e-04  6.8252701901076978e-04 2.7925890989400254e-04 1.6189659596623587e-05  7.6549953292298352e-04 1.8409143189408316e-04 2.3749143367342831e-05  1.1574944819497961e-01 1.3259177851531016e-03 1.1329936087100445e-03  1.1596429152751271e-01 6.6420599164041072e-05 1.6202774308203400e-04  5.4168301004648941e-04 4.8022498837102832e-04 -2.2709854339907151e-06  1.1598276986747821e-01 -1.0727734230172090e-04 3.5581926179887951e-04  3.4583903236849468e-04 7.1094309751937096e-04 -6.7020024736207080e-05  1.1589309747834703e-01 -3.1973662497796493e-04 6.8754500708083518e-04  1.3722917835973762e-04 9.6008521848924867e-04 -1.9540200561524155e-04  1.1557150467383837e-01 -6.4153500879411804e-04 1.1577619892348750e-03  -3.8728830870399567e-05 1.1760456243556808e-03 -3.7568201623921799e-04  1.1484870744530983e-01 -1.0115349323991814e-03 1.6343395780598513e-03  -1.7237310063313447e-04 1.2419604305254572e-03 -5.2027338799296937e-04  1.1363100066794884e-01 -1.1557452613007227e-03 1.7525145794076097e-03  -3.5824429189625898e-04 1.0344037096165365e-03 -4.6687725115138678e-04  1.1344556251441199e-01 -1.1557867884684652e-03 9.7159895726883002e-04  -7.1443534492183765e-04 5.9146386842631933e-04 -2.2574863387551253e-04  1.1812240531734773e-01 -1.1785552307534320e-03 -1.0817915725524899e-03  -1.1107559691089150e-03 2.3899046369398069e-04 -1.6441134844499773e-04  1.2335792052991576e-01 1.8478335102871760e-05 2.4803131534282571e-03  -1.3658932984874481e-03 1.7259866679691027e-04 -1.7210105126683450e-04  1.7480647519154613e-01 -3.6008878823607179e-04 1.6799740820118718e-04  1.7417784215540491e-01 1.3804714411781577e-03 1.2063126151295152e-03  1.7419502167563217e-01 -3.0567034181196308e-04 1.6790645367248944e-04  1.7387458368768105e-01 -4.0055888151100912e-04 3.0072224603393098e-04  1.7372234089760732e-01 -6.3930226798274517e-04 4.4800272547201300e-04  1.7352942196607357e-01 -9.6833473740857794e-04 5.6300338513928891e-04  1.7322842772123531e-01 -1.2277763197920529e-03 4.8018515172997765e-04  1.7295451600416115e-01 -1.0928041199749852e-03 -6.9161214048951643e-05  1.7353445987624214e-01 -3.9407439508863581e-04 -1.2457283625598697e-03  1.7665573940191615e-01 4.3228567549632318e-04 -2.0201741064836366e-03  1.8171985449573691e-01 -2.2924705672686181e-04 2.7618822198236821e-03  1.9156740166171626e-01 -1.7180135467245356e-04 1.1935359382656842e-04  1.9117352541844534e-01 9.4238204081371619e-04 1.1969583313866047e-03  1.9109633149373867e-01 -3.1797950325873983e-04 1.3375722490068876e-04  1.9075630961595480e-01 -3.3443297037375012e-04 2.3151681357391087e-04  1.9052675123090976e-01 -4.2005624682517893e-04 3.1400795587146221e-04  1.9030850249931056e-01 -5.4106709072349404e-04 3.4937903232433654e-04  1.9013864348282900e-01 -5.8384876009091001e-04 2.1690397965971620e-04  1.9027872909905880e-01 -3.6246376619837139e-04 -2.8038635390257780e-04  1.9134196789480953e-01 2.2946019119337939e-04 -1.2449381460437610e-03  1.9394305095820114e-01 9.0356826819274079e-04 -1.5679513465218680e-03  1.9823845274221777e-01 3.8211478406714426e-06 2.3694250234162760e-03  1.7453460314996086e-01 -1.2110358720074926e-04 9.0173875137314590e-05  1.7427436515601882e-01 5.1872139973186250e-04 1.1452405444401402e-03  1.7416486506002909e-01 -2.1771259246383258e-04 1.0286977252994924e-04  1.7388411495767703e-01 -1.7886481570675831e-04 1.8050683583818692e-04  1.7367177096182579e-01 -1.4804388246641832e-04 2.3733499594170198e-04  1.7348040406327181e-01 -1.2113345721241283e-04 2.5723819779893329e-04  1.7339519514656349e-01 -4.5760251670905784e-05 1.5680660741637000e-04  1.7370558712682499e-01 1.4896677819936012e-04 -2.0315155333278049e-04  1.7485771900360322e-01 4.7167611225971539e-04 -9.0580564384349152e-04  1.7696404705119712e-01 6.6655366658897549e-04 -9.5452552979338550e-04  1.7979870155252720e-01 -1.3138595777537694e-04 2.0524203942561660e-03  1.1647075024355910e-01 -9.8980858652394864e-05 4.4781735727163888e-05  1.1700395664876026e-01 3.7135237863115017e-04 9.9850329767887068e-04  1.1619131314718849e-01 -6.1541869126639675e-05 5.1989619448506724e-05  1.1603428656788112e-01 6.2001697945122125e-05 1.1193480940390655e-04  1.1594412454146831e-01 1.9218714276605928e-04 1.4758152604752320e-04  1.1587243513488496e-01 3.2481985368885117e-04 1.4876673139695842e-04  1.1586449596259023e-01 4.6853994976271479e-04 6.0666227863075940e-05  1.1612096238754735e-01 6.1963999361353916e-04 -2.0724892061064497e-04  1.1697686223930606e-01 7.2503688766692323e-04 -6.4566770223704374e-04  1.1862852390987430e-01 6.5038410023886663e-04 -4.6918202655054953e-04  1.1951359176594903e-01 -2.1933146306496218e-04 1.9023872355777365e-03  1.1278160399759449e-03 1.2513314842095969e-05 6.8948248912917607e-06  1.1529833647668808e-03 7.8241216480245105e-06 9.1216212963230772e-06  1.0486187663635966e-03 3.1651864976592263e-05 1.7976106113080432e-05  9.0555469108241182e-04 6.5038671596247049e-05 2.6208947698799255e-05  6.9414710179739820e-04 9.8005644449622418e-05 3.3588161284861420e-05  4.0344248379202684e-04 1.2234817019226061e-04 4.4184771760459111e-05  3.0672577859820812e-05 1.2884339497771892e-04 6.0593866610960687e-05  -4.2228980495548975e-04 1.1419654330728936e-04 8.0172800769709972e-05  -9.3214274524345154e-04 8.4889950137989980e-05 8.9231078282789187e-05  -1.3813198423742981e-03 4.7777155244672634e-05 6.9428657128681656e-05  -1.5771365650605266e-03 2.6953663490135735e-05 5.7330399803167238e-05  1.2678890331878551e-01 2.2951430853479209e-04 8.9241469116372411e-05  6.9734763294232525e-04 2.5541471567870497e-04 4.5135594441045298e-05  7.9138177942801038e-04 1.6213708607528383e-04 3.9508106384701343e-05  1.2587507944586782e-01 1.3516755663055110e-03 9.1278107224823527e-04  1.2612497950006615e-01 2.5644594721561715e-05 -3.3258446438144703e-06  5.2702738655705970e-04 4.5760793513028100e-04 6.0843354296953443e-05  1.2627434399088053e-01 -1.4351247422485244e-04 1.0404199530640767e-04  2.7750896512845745e-04 7.2540987100612421e-04 3.5537905053841491e-05  1.2630714425959608e-01 -3.6817431269928441e-04 3.4633467410067985e-04  -1.4649103943659115e-05 1.0866137891761309e-03 -7.2335428695888715e-05  1.2611510362845318e-01 -7.9619140275627713e-04 7.9782975080237135e-04  -2.7282127002012418e-04 1.5365628458402134e-03 -3.1096875115559086e-04  1.2547880541891321e-01 -1.5605826105160273e-03 1.4225242622805908e-03  -4.0105636756065493e-04 1.9490509445231035e-03 -6.6506899538345805e-04  1.2385809954218242e-01 -2.3261712647698841e-03 1.8351067303396444e-03  -4.1149015734924705e-04 2.0124200667085259e-03 -8.9598869954150742e-04  1.2167588350145687e-01 -1.5310099953183662e-03 1.3382583417240951e-03  -4.4439093706938332e-04 1.4206661872012173e-03 -5.1855267105335690e-04  1.2738691378228545e-01 -1.4672596699345731e-03 -2.2707059435141512e-04  -6.6360999543301706e-04 6.2694537372674243e-04 -3.1221483472934961e-04  1.4000698124019365e-01 -1.7544237242977294e-03 4.3345161501188003e-03  -8.6031783077916344e-04 4.3243076768348165e-04 -6.9303952959590522e-04  1.9169143095676272e-01 -3.7177667098016421e-04 1.3652254970551985e-04  1.9110112561530965e-01 1.3987732055460948e-03 9.6807542862940746e-04  1.9113805608898754e-01 -3.1787626249620037e-04 7.2906845353936587e-05  1.9086699264689830e-01 -4.3046845125542261e-04 1.7942724781441804e-04  1.9071453836066979e-01 -7.3803548296782432e-04 3.3486245972660808e-04  1.9048501285511255e-01 -1.2709974839655042e-03 4.9167207519638153e-04  1.9009020329051485e-01 -1.9686889403358631e-03 4.6240516783683405e-04  1.8951407047576943e-01 -2.2454666131235222e-03 -1.5860534828224251e-04  1.8961257718272856e-01 -9.3912128161626808e-04 -1.6725670274597910e-03  1.9353665266610937e-01 1.3928593707602229e-03 -3.4570151884823369e-03  2.0269005632810877e-01 -8.3858628018495369e-04 4.1774943591566527e-03  2.1078145533458684e-01 -1.9165243648978553e-04 1.1942810863394029e-04  2.1043263325595901e-01 9.4400701107217016e-04 9.7869823328798795e-04  2.1037967384883607e-01 -3.3072476406331773e-04 6.3689925227873828e-05  2.1007742449392272e-01 -3.5986275900267665e-04 1.4030306003736382e-04  2.0984793118546050e-01 -4.9027281268526298e-04 2.2473419206511783e-04  2.0958387502122933e-01 -7.1269054600853264e-04 2.7058744049206739e-04  2.0925879603934919e-01 -9.1026000144106502e-04 1.5822302602168975e-04  2.0906571484453623e-01 -7.3555107118058224e-04 -3.1771776607538029e-04  2.1006714715948188e-01 2.7653900500339886e-04 -1.3274102824678842e-03  2.1374003563043065e-01 1.7367682231747598e-03 -2.6311528619345445e-03  2.2068192095238987e-01 -2.2163668461907567e-04 3.2678233301903481e-03  1.9143674113292625e-01 -1.3876419788610861e-04 1.0164608708048053e-04  1.9123053125730921e-01 5.0290752822058850e-04 9.5893114911327663e-04  1.9113836062295647e-01 -2.2805285211715179e-04 4.3696155246060341e-05  1.9089904437221419e-01 -1.8683225669027280e-04 1.0368398679880446e-04  1.9069237789868568e-01 -1.7122486252572268e-04 1.5978215495283547e-04  1.9047091590580276e-01 -1.7253475443257214e-04 1.8350754