<?xml version="1.0"?>
<VTKFile type="UnstructuredGrid"  version="0.1"  >
<UnstructuredGrid>
<Piece  NumberOfPoints="539" NumberOfCells="2160">
<Points>
<DataArray  type="Float64"  NumberOfComponents="3"  format="ascii">0 0.2 0.2  0.1 0.2 0.2  0.1 0.3 0.2  0.1 0.3 0.3  0.1 0.2 0.3  0 0.2 0.3  0 0.3 0.2  0 0.3 0.3  0.2 0.2 0.2  0.2 0.3 0.2  0.2 0.3 0.3  0.2 0.2 0.3  0.3 0.2 0.2  0.3 0.3 0.2  0.3 0.3 0.3  0.3 0.2 0.3  0.4 0.2 0.2  0.4 0.3 0.2  0.4 0.3 0.3  0.4 0.2 0.3  0.5 0.2 0.2  0.5 0.3 0.2  0.5 0.3 0.3  0.5 0.2 0.3  0.6 0.2 0.2  0.6 0.3 0.2  0.6 0.3 0.3  0.6 0.2 0.3  0.7 0.2 0.2  0.7 0.3 0.2  0.7 0.3 0.3  0.7 0.2 0.3  0.8 0.2 0.2  0.8 0.3 0.2  0.8 0.3 0.3  0.8 0.2 0.3  0.9 0.2 0.2  0.9 0.3 0.2  0.9 0.3 0.3  0.9 0.2 0.3  1 0.2 0.2  1 0.3 0.2  1 0.3 0.3  1 0.2 0.3  0.1 0.4 0.2  0.1 0.4 0.3  0 0.4 0.2  0 0.4 0.3  0.2 0.4 0.2  0.2 0.4 0.3  0.3 0.4 0.2  0.3 0.4 0.3  0.4 0.4 0.2  0.4 0.4 0.3  0.5 0.4 0.2  0.5 0.4 0.3  0.6 0.4 0.2  0.6 0.4 0.3  0.7 0.4 0.2  0.7 0.4 0.3  0.8 0.4 0.2  0.8 0.4 0.3  0.9 0.4 0.2  0.9 0.4 0.3  1 0.4 0.2  1 0.4 0.3  0.1 0.5 0.2  0.1 0.5 0.3  0 0.5 0.2  0 0.5 0.3  0.2 0.5 0.2  0.2 0.5 0.3  0.3 0.5 0.2  0.3 0.5 0.3  0.4 0.5 0.2  0.4 0.5 0.3  0.5 0.5 0.2  0.5 0.5 0.3  0.6 0.5 0.2  0.6 0.5 0.3  0.7 0.5 0.2  0.7 0.5 0.3  0.8 0.5 0.2  0.8 0.5 0.3  0.9 0.5 0.2  0.9 0.5 0.3  1 0.5 0.2  1 0.5 0.3  0.1 0.6 0.2  0.1 0.6 0.3  0 0.6 0.2  0 0.6 0.3  0.2 0.6 0.2  0.2 0.6 0.3  0.3 0.6 0.2  0.3 0.6 0.3  0.4 0.6 0.2  0.4 0.6 0.3  0.5 0.6 0.2  0.5 0.6 0.3  0.6 0.6 0.2  0.6 0.6 0.3  0.7 0.6 0.2  0.7 0.6 0.3  0.8 0.6 0.2  0.8 0.6 0.3  0.9 0.6 0.2  0.9 0.6 0.3  1 0.6 0.2  1 0.6 0.3  0.1 0.7 0.2  0.1 0.7 0.3  0 0.7 0.2  0 0.7 0.3  0.2 0.7 0.2  0.2 0.7 0.3  0.3 0.7 0.2  0.3 0.7 0.3  0.4 0.7 0.2  0.4 0.7 0.3  0.5 0.7 0.2  0.5 0.7 0.3  0.6 0.7 0.2  0.6 0.7 0.3  0.7 0.7 0.2  0.7 0.7 0.3  0.8 0.7 0.2  0.8 0.7 0.3  0.9 0.7 0.2  0.9 0.7 0.3  1 0.7 0.2  1 0.7 0.3  0.1 0.8 0.2  0.1 0.8 0.3  0 0.8 0.2  0 0.8 0.3  0.2 0.8 0.2  0.2 0.8 0.3  0.3 0.8 0.2  0.3 0.8 0.3  0.4 0.8 0.2  0.4 0.8 0.3  0.5 0.8 0.2  0.5 0.8 0.3  0.6 0.8 0.2  0.6 0.8 0.3  0.7 0.8 0.2  0.7 0.8 0.3  0.8 0.8 0.2  0.8 0.8 0.3  0.9 0.8 0.2  0.9 0.8 0.3  1 0.8 0.2  1 0.8 0.3  0.1 0.3 0.4  0.1 0.2 0.4  0 0.2 0.4  0 0.3 0.4  0.2 0.3 0.4  0.2 0.2 0.4  0.3 0.3 0.4  0.3 0.2 0.4  0.4 0.3 0.4  0.4 0.2 0.4  0.5 0.3 0.4  0.5 0.2 0.4  0.6 0.3 0.4  0.6 0.2 0.4  0.7 0.3 0.4  0.7 0.2 0.4  0.8 0.3 0.4  0.8 0.2 0.4  0.9 0.3 0.4  0.9 0.2 0.4  1 0.3 0.4  1 0.2 0.4  0.1 0.4 0.4  0 0.4 0.4  0.2 0.4 0.4  0.3 0.4 0.4  0.4 0.4 0.4  0.5 0.4 0.4  0.6 0.4 0.4  0.7 0.4 0.4  0.8 0.4 0.4  0.9 0.4 0.4  1 0.4 0.4  0.1 0.5 0.4  0 0.5 0.4  0.2 0.5 0.4  0.3 0.5 0.4  0.4 0.5 0.4  0.5 0.5 0.4  0.6 0.5 0.4  0.7 0.5 0.4  0.8 0.5 0.4  0.9 0.5 0.4  1 0.5 0.4  0.1 0.6 0.4  0 0.6 0.4  0.2 0.6 0.4  0.3 0.6 0.4  0.4 0.6 0.4  0.5 0.6 0.4  0.6 0.6 0.4  0.7 0.6 0.4  0.8 0.6 0.4  0.9 0.6 0.4  1 0.6 0.4  0.1 0.7 0.4  0 0.7 0.4  0.2 0.7 0.4  0.3 0.7 0.4  0.4 0.7 0.4  0.5 0.7 0.4  0.6 0.7 0.4  0.7 0.7 0.4  0.8 0.7 0.4  0.9 0.7 0.4  1 0.7 0.4  0.1 0.8 0.4  0 0.8 0.4  0.2 0.8 0.4  0.3 0.8 0.4  0.4 0.8 0.4  0.5 0.8 0.4  0.6 0.8 0.4  0.7 0.8 0.4  0.8 0.8 0.4  0.9 0.8 0.4  1 0.8 0.4  0.1 0.3 0.5  0.1 0.2 0.5  0 0.2 0.5  0 0.3 0.5  0.2 0.3 0.5  0.2 0.2 0.5  0.3 0.3 0.5  0.3 0.2 0.5  0.4 0.3 0.5  0.4 0.2 0.5  0.5 0.3 0.5  0.5 0.2 0.5  0.6 0.3 0.5  0.6 0.2 0.5  0.7 0.3 0.5  0.7 0.2 0.5  0.8 0.3 0.5  0.8 0.2 0.5  0.9 0.3 0.5  0.9 0.2 0.5  1 0.3 0.5  1 0.2 0.5  0.1 0.4 0.5  0 0.4 0.5  0.2 0.4 0.5  0.3 0.4 0.5  0.4 0.4 0.5  0.5 0.4 0.5  0.6 0.4 0.5  0.7 0.4 0.5  0.8 0.4 0.5  0.9 0.4 0.5  1 0.4 0.5  0.1 0.5 0.5  0 0.5 0.5  0.2 0.5 0.5  0.3 0.5 0.5  0.4 0.5 0.5  0.5 0.5 0.5  0.6 0.5 0.5  0.7 0.5 0.5  0.8 0.5 0.5  0.9 0.5 0.5  1 0.5 0.5  0.1 0.6 0.5  0 0.6 0.5  0.2 0.6 0.5  0.3 0.6 0.5  0.4 0.6 0.5  0.5 0.6 0.5  0.6 0.6 0.5  0.7 0.6 0.5  0.8 0.6 0.5  0.9 0.6 0.5  1 0.6 0.5  0.1 0.7 0.5  0 0.7 0.5  0.2 0.7 0.5  0.3 0.7 0.5  0.4 0.7 0.5  0.5 0.7 0.5  0.6 0.7 0.5  0.7 0.7 0.5  0.8 0.7 0.5  0.9 0.7 0.5  1 0.7 0.5  0.1 0.8 0.5  0 0.8 0.5  0.2 0.8 0.5  0.3 0.8 0.5  0.4 0.8 0.5  0.5 0.8 0.5  0.6 0.8 0.5  0.7 0.8 0.5  0.8 0.8 0.5  0.9 0.8 0.5  1 0.8 0.5  0.1 0.3 0.6  0.1 0.2 0.6  0 0.2 0.6  0 0.3 0.6  0.2 0.3 0.6  0.2 0.2 0.6  0.3 0.3 0.6  0.3 0.2 0.6  0.4 0.3 0.6  0.4 0.2 0.6  0.5 0.3 0.6  0.5 0.2 0.6  0.6 0.3 0.6  0.6 0.2 0.6  0.7 0.3 0.6  0.7 0.2 0.6  0.8 0.3 0.6  0.8 0.2 0.6  0.9 0.3 0.6  0.9 0.2 0.6  1 0.3 0.6  1 0.2 0.6  0.1 0.4 0.6  0 0.4 0.6  0.2 0.4 0.6  0.3 0.4 0.6  0.4 0.4 0.6  0.5 0.4 0.6  0.6 0.4 0.6  0.7 0.4 0.6  0.8 0.4 0.6  0.9 0.4 0.6  1 0.4 0.6  0.1 0.5 0.6  0 0.5 0.6  0.2 0.5 0.6  0.3 0.5 0.6  0.4 0.5 0.6  0.5 0.5 0.6  0.6 0.5 0.6  0.7 0.5 0.6  0.8 0.5 0.6  0.9 0.5 0.6  1 0.5 0.6  0.1 0.6 0.6  0 0.6 0.6  0.2 0.6 0.6  0.3 0.6 0.6  0.4 0.6 0.6  0.5 0.6 0.6  0.6 0.6 0.6  0.7 0.6 0.6  0.8 0.6 0.6  0.9 0.6 0.6  1 0.6 0.6  0.1 0.7 0.6  0 0.7 0.6  0.2 0.7 0.6  0.3 0.7 0.6  0.4 0.7 0.6  0.5 0.7 0.6  0.6 0.7 0.6  0.7 0.7 0.6  0.8 0.7 0.6  0.9 0.7 0.6  1 0.7 0.6  0.1 0.8 0.6  0 0.8 0.6  0.2 0.8 0.6  0.3 0.8 0.6  0.4 0.8 0.6  0.5 0.8 0.6  0.6 0.8 0.6  0.7 0.8 0.6  0.8 0.8 0.6  0.9 0.8 0.6  1 0.8 0.6  0.1 0.3 0.7  0.1 0.2 0.7  0 0.2 0.7  0 0.3 0.7  0.2 0.3 0.7  0.2 0.2 0.7  0.3 0.3 0.7  0.3 0.2 0.7  0.4 0.3 0.7  0.4 0.2 0.7  0.5 0.3 0.7  0.5 0.2 0.7  0.6 0.3 0.7  0.6 0.2 0.7  0.7 0.3 0.7  0.7 0.2 0.7  0.8 0.3 0.7  0.8 0.2 0.7  0.9 0.3 0.7  0.9 0.2 0.7  1 0.3 0.7  1 0.2 0.7  0.1 0.4 0.7  0 0.4 0.7  0.2 0.4 0.7  0.3 0.4 0.7  0.4 0.4 0.7  0.5 0.4 0.7  0.6 0.4 0.7  0.7 0.4 0.7  0.8 0.4 0.7  0.9 0.4 0.7  1 0.4 0.7  0.1 0.5 0.7  0 0.5 0.7  0.2 0.5 0.7  0.3 0.5 0.7  0.4 0.5 0.7  0.5 0.5 0.7  0.6 0.5 0.7  0.7 0.5 0.7  0.8 0.5 0.7  0.9 0.5 0.7  1 0.5 0.7  0.1 0.6 0.7  0 0.6 0.7  0.2 0.6 0.7  0.3 0.6 0.7  0.4 0.6 0.7  0.5 0.6 0.7  0.6 0.6 0.7  0.7 0.6 0.7  0.8 0.6 0.7  0.9 0.6 0.7  1 0.6 0.7  0.1 0.7 0.7  0 0.7 0.7  0.2 0.7 0.7  0.3 0.7 0.7  0.4 0.7 0.7  0.5 0.7 0.7  0.6 0.7 0.7  0.7 0.7 0.7  0.8 0.7 0.7  0.9 0.7 0.7  1 0.7 0.7  0.1 0.8 0.7  0 0.8 0.7  0.2 0.8 0.7  0.3 0.8 0.7  0.4 0.8 0.7  0.5 0.8 0.7  0.6 0.8 0.7  0.7 0.8 0.7  0.8 0.8 0.7  0.9 0.8 0.7  1 0.8 0.7  0.1 0.3 0.8  0.1 0.2 0.8  0 0.2 0.8  0 0.3 0.8  0.2 0.3 0.8  0.2 0.2 0.8  0.3 0.3 0.8  0.3 0.2 0.8  0.4 0.3 0.8  0.4 0.2 0.8  0.5 0.3 0.8  0.5 0.2 0.8  0.6 0.3 0.8  0.6 0.2 0.8  0.7 0.3 0.8  0.7 0.2 0.8  0.8 0.3 0.8  0.8 0.2 0.8  0.9 0.3 0.8  0.9 0.2 0.8  1 0.3 0.8  1 0.2 0.8  0.1 0.4 0.8  0 0.4 0.8  0.2 0.4 0.8  0.3 0.4 0.8  0.4 0.4 0.8  0.5 0.4 0.8  0.6 0.4 0.8  0.7 0.4 0.8  0.8 0.4 0.8  0.9 0.4 0.8  1 0.4 0.8  0.1 0.5 0.8  0 0.5 0.8  0.2 0.5 0.8  0.3 0.5 0.8  0.4 0.5 0.8  0.5 0.5 0.8  0.6 0.5 0.8  0.7 0.5 0.8  0.8 0.5 0.8  0.9 0.5 0.8  1 0.5 0.8  0.1 0.6 0.8  0 0.6 0.8  0.2 0.6 0.8  0.3 0.6 0.8  0.4 0.6 0.8  0.5 0.6 0.8  0.6 0.6 0.8  0.7 0.6 0.8  0.8 0.6 0.8  0.9 0.6 0.8  1 0.6 0.8  0.1 0.7 0.8  0 0.7 0.8  0.2 0.7 0.8  0.3 0.7 0.8  0.4 0.7 0.8  0.5 0.7 0.8  0.6 0.7 0.8  0.7 0.7 0.8  0.8 0.7 0.8  0.9 0.7 0.8  1 0.7 0.8  0.1 0.8 0.8  0 0.8 0.8  0.2 0.8 0.8  0.3 0.8 0.8  0.4 0.8 0.8  0.5 0.8 0.8  0.6 0.8 0.8  0.7 0.8 0.8  0.8 0.8 0.8  0.9 0.8 0.8  1 0.8 0.8  </DataArray>
</Points>
<Cells>
[...]
<PointData  Vectors="f_23"> 
<DataArray  type="Float64"  Name="f_23"  NumberOfComponents="3" format="ascii">-2.7472495403460068e-04 -9.8175185566489761e-05 9.0318821360071863e-07  -2.2229218120278161e-04 -1.4768736905970144e-04 -3.2406179249561229e-06  -2.6781566118432872e-04 -1.0318204882234955e-04 -8.9303801994995088e-06  8.2389177929860530e-02 -1.4491239293587519e-04 -3.9301600798585053e-04  -2.2791781975564502e-04 -1.4493033129275943e-04 -5.6306082633811216e-06  -2.7594863340875961e-04 -9.9224529032853058e-05 -2.9258169190718022e-06  -3.1520016939881129e-04 -6.1241622751176831e-05 -6.9896130025908931e-06  8.2743932950398585e-02 -5.9462812066172512e-04 -1.0763251208082776e-03  -1.5680703898186138e-04 -2.2385685290215337e-04 7.3836472178056482e-06  -1.9840141227211257e-04 -1.6799866007293529e-04 -7.7525749180494582e-06  8.2905328612901397e-02 8.7204310815020474e-06 -1.7095617357153832e-04  -1.5662289719112072e-04 -2.3588980151972768e-04 4.5004490208966069e-06  -8.7774378499158356e-05 -2.8470958958027286e-04 3.2200962884726227e-05  -1.2556380769962583e-04 -2.1978854467637410e-04 2.9786788072890062e-06  8.2886569343288058e-02 1.0609353493560893e-04 -2.1400626865137682e-04  -7.4851554482492072e-05 -3.2255239454385460e-04 3.6364297203285270e-05  -2.3436801194549460e-05 -3.1768253020364109e-04 7.2179061968765353e-05  -4.8671481979501979e-05 -2.4999080241169211e-04 2.6572274027865116e-05  8.2982533816759518e-02 2.1628241888217749e-04 -3.2751826169511242e-04  2.0469491318871385e-06 -3.9266155989006046e-04 9.9202110959577006e-05  2.3563120772836262e-05 -3.0517327927869094e-04 1.1464769458647295e-04  1.9905145057891127e-05 -2.4729337691158928e-04 5.8520614828192165e-05  8.3197314513356282e-02 3.6001112490153403e-04 -4.8117789899908720e-04  4.7445034420566573e-05 -4.2075268258618244e-04 1.8441251565097947e-04  6.0514139441564175e-05 -2.3835133964099391e-04 1.3421068611909544e-04  7.7070825210163053e-05 -2.0359799161770488e-04 8.3634721927979222e-05  8.3511096006583921e-02 4.9609126425874026e-04 -6.3141005326642372e-04  5.2942329721510297e-05 -3.7522152860253953e-04 2.5298937415863605e-04  1.2693315408735193e-04 -1.3838754085585822e-04 1.0727713922536862e-04  1.4257588950529918e-04 -1.2811129117953660e-04 7.9486317417169688e-05  8.3784258867875300e-02 5.6918731975617908e-04 -6.5458243533926942e-04  6.6843538914505100e-05 -2.5588590989978553e-04 2.4240477796283515e-04  2.7928754288197730e-04 -5.6469822393168204e-05 5.3042502461608505e-05  2.6459946158147684e-04 -5.4799301109967447e-05 4.2642642964420071e-05  8.3540675962922153e-02 5.2371354875867932e-04 -2.9003530374658069e-04  1.7587244600622301e-04 -1.2799584259495363e-04 1.2723675869449208e-04  4.6543209229084158e-04 -1.9111785599637935e-05 2.9880413107505129e-05  4.4695115631091431e-04 -1.9023140269559298e-05 2.8272648963535145e-05  8.2213512139232572e-02 2.6933275728218439e-04 2.1519932514332899e-04  3.7468057116041216e-04 -4.2328765464256371e-05 6.8172826133571651e-05  5.6874738019817067e-04 -4.8812484117678145e-06 4.7070837870053491e-05  5.7244825539712384e-04 -5.6073089035630299e-06 2.8330296806173892e-05  8.0476421381940069e-02 -1.8015630272417575e-04 -1.4334480623697163e-03  5.3202342184968090e-04 -2.6840966943839797e-05 6.4061902741353305e-05  -3.2580035828317901e-04 -6.2219602422548595e-05 -1.5405524942557324e-05  1.1488917708880886e-01 1.8712303739606295e-04 -3.8406570888416426e-04  -3.6920545972345332e-04 -3.5703597201655221e-05 -1.0273552645109830e-05  1.1568978483336391e-01 -5.8804199171113636e-04 -1.1501285071852940e-03  -2.5003156435086173e-04 -1.0735837981522338e-04 -2.1481754817901545e-05  1.1532158440131068e-01 1.9936301747354852e-04 -1.3604295129244823e-04  -1.6090885974545836e-04 -1.4570664288304577e-04 -2.2634592560587767e-05  1.1538061671432906e-01 2.3037730441225005e-04 -1.2132267221601879e-04  -6.0697055962507833e-05 -1.6763003703527336e-04 -1.3806014277754360e-05  1.1544508547316200e-01 3.0152901073090367e-04 -1.3847780253859547e-04  3.8380175084615692e-05 -1.6678929151105903e-04 5.9648012313853500e-06  1.1556860403966233e-01 3.9265637290716258e-04 -1.4407954899071677e-04  1.2446433586957959e-04 -1.3887341409745188e-04 3.0700768674454350e-05  1.1571248490929752e-01 4.3991635625708757e-04 -1.0639407262937689e-04  2.0118198686764217e-04 -8.7916630114992292e-05 4.2400322485752946e-05  1.1577180873269673e-01 3.6153825615334979e-04 2.4879938465784142e-05  3.0999386113905123e-04 -3.5261850505951128e-05 2.5134540903558181e-05  1.1556293369942708e-01 1.2349462926629460e-04 2.5743559855090034e-04  4.7155156264748873e-04 -1.4111824874368073e-05 1.8532715055727067e-05  1.1489411294103177e-01 -2.0278079360555958e-04 1.1843110216183219e-04  5.8318803418886528e-04 -4.0587867145490314e-06 1.9224360138525722e-05  1.1347801826104092e-01 -3.3597477337889176e-05 -2.0339130522577741e-03  -3.6446793632246422e-04 -4.0179405845168971e-05 -1.6161142223236236e-05  1.2595220939271257e-01 1.2967447001299991e-04 -3.2223795118215367e-04  -4.0257157252485240e-04 -2.2078517066631158e-05 -1.0075616755204770e-05  1.2671067804711963e-01 -4.1534894717173959e-04 -1.0884755747168585e-03  -2.8822002069444708e-04 -7.1754958457936476e-05 -2.4147991709662237e-05  1.2633601927168814e-01 2.0211974848783045e-04 -7.5905305442719646e-05  -1.8720890064149299e-04 -1.0057356993895404e-04 -2.9084146713189294e-05  1.2641892940704599e-01 1.9676448300570684e-04 -4.7673973754735308e-05  -6.9473584519303623e-05 -1.1798336128427829e-04 -2.5570465698110440e-05  1.2651431693968657e-01 2.0887824211019191e-04 -3.6329777651786421e-05  5.1136564627438554e-05 -1.1941486564820274e-04 -1.0660083916918437e-05  1.2662989890041981e-01 2.2956508750818173e-04 -4.1089941615843361e-06  1.5818998106146773e-04 -1.0204348901278412e-04 1.3413230195482098e-05  1.2669950257441370e-01 2.1695305157210681e-04 6.6557643774046258e-05  2.4560592626280542e-04 -6.6060749632929503e-05 3.1376502270517392e-05  1.2662196215087293e-01 1.2231745753447826e-04 1.9457644952646235e-04  3.4501289454745771e-04 -2.2360393840142251e-05 2.1456232533733526e-05  1.2635449830275619e-01 -5.9968832086769162e-05 3.0673047912233980e-04  4.8501519478094115e-04 -8.2052240325520128e-06 1.4954495904724251e-05  1.2598632578510541e-01 -2.4667841319635106e-04 -1.1907830148453787e-04  5.8099292693984271e-04 1.9749095096027033e-06 1.9502950656555515e-05  1.2481900935990822e-01 5.4394416831927313e-05 -2.0583918115747112e-03  -3.9157246098742014e-04 -2.6027056735788952e-05 -1.3751843472907350e-05  1.1492918179368705e-01 1.1040913335803758e-04 -2.8004007763100406e-04  -4.2432883664052917e-04 -1.6532191219191143e-05 -9.0001578850439841e-06  1.1555931707154224e-01 -2.4956163893841783e-04 -9.9801249178893764e-04  -3.1808142784509714e-04 -4.9974564199733407e-05 -1.9211879457966754e-05  1.1529214633243412e-01 1.4094045677183096e-04 -5.4683960852607451e-05  -2.1087857800406438e-04 -7.4279914050503498e-05 -2.2124992041083989e-05  1.1536864991846066e-01 1.0663682534761489e-04 -2.2067955765674040e-05  -8.1548408880676942e-05 -9.1907882364126086e-05 -1.7975680922296050e-05  1.1546187802528741e-01 7.4267249631080915e-05 -3.1263601660653888e-06  5.4132144799204341e-05 -9.8494922230721541e-05 -3.8160427699326333e-06  1.1556090454201949e-01 4.4587046806072959e-05 3.6988052852442941e-05  1.7820283909518447e-04 -9.1444341125020376e-05 1.9006506550747698e-05  1.1558324345729099e-01 5.3617821446474657e-06 1.0971543416524343e-04  2.7967906373129825e-04 -6.8286888901257007e-05 3.7191795434791273e-05  1.1544139703570173e-01 -4.6627281478223318e-05 2.1868400345842251e-04  3.7850004945965792e-04 -2.9659244784550745e-05 2.7705859475598307e-05  1.1516429351100146e-01 -8.5711049828565746e-05 2.5260945449549722e-04  4.9653331556665241e-04 -1.0510508948580169e-05 1.6302936644728196e-05  1.1494513407724573e-01 -5.6292242438665276e-05 -2.5042221645169368e-04  5.7503941669461854e-04 -3.3640725886915547e-07 2.1601050482024392e-05  1.1413876407713504e-01 2.0903597822788882e-04 -1.8792028083543882e-03  -4.1034471609177657e-04 -1.6635862636854780e-05 -1.3666805902332963e-05  8.1510713281583116e-02 5.6484610443707224e-05 -2.5570711597309212e-04  -4.3738991480530523e-04 -9.4264783628090989e-06 -1.0445675303503493e-05  8.1353930102450359e-02 -3.9017391357707836e-04 -8.4776154961355783e-04  -3.4612336072105642e-04 -3.3090034665387189e-05 -1.4122826995083958e-05  8.1820212227676811e-02 3.4787354346121128e-05 -6.2731239833825847e-05  -2.3979136590446333e-04 -5.6235909920407108e-05 -1.2693077567000666e-05  8.1844305819859672e-02 -4.7654029279965491e-05 -3.0657044472797801e-05  -1.0377331167226558e-04 -7.8358938204615110e-05 -6.4344925002914703e-06  8.1869072658693712e-02 -1.2664646772841983e-04 -8.8323894347228417e-06  4.2886193792900803e-05 -9.2068733845861343e-05 7.0527478311055842e-06  8.1895159817915730e-02 -2.0648467148964847e-04 4.1855513130444505e-05  1.7974832714040746e-04 -9.3896156802351197e-05 2.7797610701523438e-05  8.1857567153373390e-02 -2.7930551430379647e-04 1.3146124920160684e-04  2.9583768444477578e-04 -8.1755260783417802e-05 4.5742678347247010e-05  8.1699577977426247e-02 -3.1895306277346987e-04 2.4629502523248656e-04  4.0745686494243148e-04 -5.4346596251689601e-05 3.8964851632807422e-05  8.1454410325006554e-02 -2.8679076799258119e-04 2.6438858817821198e-04  5.1416553719530790e-04 -2.4327778311486914e-05 2.0394642913505675e-05  8.1167487545776296e-02 -2.2198137966385998e-04 -1.4080666986527934e-04  5.7619677672321695e-04 -1.2598564880914428e-05 2.3763690651382092e-05  8.1056031788996619e-02 1.9213543670910509e-04 -1.4950079960988850e-03  -4.3235540061635020e-04 -1.7981977839799325e-05 -3.5807077809165101e-06  -4.4171770129331530e-04 -8.1181277146612674e-06 -9.4472751489429834e-06  -4.4785349542827665e-04 -6.5514349699077362e-06 -8.8935190417720506e-06  -4.4743705463984800e-04 -1.3077196830820958e-05 -9.0033996256033016e-06  -3.7993404094547104e-04 -2.8757548428471452e-05 -1.0933044560697346e-05  -4.0183727164390376e-04 -2.0688314854816548e-05 -1.4324306116338943e-05  -2.8919475980513195e-04 -4.6305280182881817e-05 -1.4145473339586023e-05  -3.2401749007499118e-04 -3.9567942551882554e-05 -1.6135765192174632e-05  -1.6364923115708748e-04 -6.7289258009227223e-05 -1.2614757767638464e-05  -2.0790011399095043e-04 -6.3442174228191695e-05 -1.3277966980060398e-05  -1.9301128288998904e-05 -8.2344884600192735e-05 -6.9609583251317469e-06  -6.7652533021877729e-05 -8.2444987562982846e-05 -4.1460747722055998e-06  1.2437728596796004e-04 -8.7215739559986776e-05 5.0087250855548899e-06  7.7075698066759335e-05 -9.1614505560700678e-05 1.3814641693787588e-05  2.4874343713091556e-04 -7.9685483631436528e-05 2.2259250045566465e-05  2.0432780057240231e-04 -8.7852822839400551e-05 3.7262042146227938e-05  3.5746420619615254e-04 -5.7543081228193159e-05 3.1559458770104372e-05  3.0670182337267559e-04 -6.8113815186650458e-05 4.9410743108341804e-05  4.9479372245705728e-04 -2.6992114529818590e-05 2.2812078161691476e-05  4.2672763414741888e-04 -4.0528092711123239e-05 3.5861269819704300e-05  5.7143621717367253e-04 -1.8428536726723396e-05 3.3089731365383126e-05  5.0301710282126043e-04 -1.6202133092541310e-05 2.8284712852393521e-05  1.1479339516845806e-01 -1.4897148150111523e-04 -1.2374168507549638e-04  -2.3054298005030841e-04 -1.4980471338994354e-04 -1.6362964235566927e-05  -2.8330948355995952e-04 -9.8875309277021288e-05 -1.2938923026071779e-05  1.1546317721900734e-01 -5.7966552477558002e-04 -9.6935319895863174e-04  1.1518850465432898e-01 -1.7761093234232727e-05 -4.2943678291050373e-05  -1.4262007566023143e-04 -2.5508131329588413e-04 -1.2139113414236246e-05  1.1513103528690814e-01 8.0307320605275064e-05 -1.5227018057759094e-04  -2.3747459326439258e-05 -3.7517927583010648e-04 2.4493696472581357e-05  1.1513417315389982e-01 2.0170047416604074e-04 -3.4116179349216356e-04  9.9271979756220170e-05 -5.0623597132407299e-04 1.1822189495562558e-04  1.1527999801748615e-01 4.0011471218704661e-04 -6.2651521007469962e-04  1.7170840229061436e-04 -6.2210406141665665e-04 2.8331760009770389e-04  1.1566788417476044e-01 6.5848154947241737e-04 -9.8285360276268493e-04  1.3513991048377577e-04 -6.5679882928182701e-04 4.8930981770723856e-04  1.1640687053251131e-01 8.0086334522413267e-04 -1.2127640932027783e-03  2.3024772882297602e-05 -5.3919145706476837e-04 6.0779526310480265e-04  1.1678929463481989e-01 7.7717827277014795e-04 -9.6197353425786112e-04  3.6475843444664980e-05 -3.1017113273867897e-04 4.2886846437881513e-04  1.1485236309488646e-01 5.5823493410656001e-04 -1.2496456239706767e-04  1.9371383176416775e-04 -1.1620751341930640e-04 1.8298569413730716e-04  1.1257498203811497e-01 -3.9234997509529607e-04 -3.1526309884635615e-03  3.7232499837160001e-04 -7.7293927231864091e-05 2.0098940826986263e-04  1.7036093647285638e-01 2.4877661990937284e-04 -8.7368086563190936e-05  1.7072640949051185e-01 -5.9199548791842181e-04 -1.0320906638973972e-03  1.7067593144787044e-01 2.2700157755062709e-04 4.1818607153931440e-06  1.7080064960467595e-01 2.7309012787793407e-04 -7.0098962705428226e-05  1.7083346265651730e-01 3.9727048888430432e-04 -1.6631456839126483e-04  1.7092178666739832e-01 5.9589987909486688e-04 -2.7911852445590342e-04  1.7113429772035438e-01 7.9358415106295832e-04 -3.7774864445842902e-04  1.7145179296414692e-01 7.8124504152193332e-04 -3.4315535723226828e-04  1.7151193948107377e-01 3.5106062520899958e-04 -5.3050586201145542e-05  1.7053459166252630e-01 -3.4827393589478346e-04 -1.4011581012403655e-04  1.6839442180708164e-01 5.5201453385676057e-05 -3.7775394299845336e-03  1.8913444892854653e-01 1.6027394561510255e-04 -4.7906691194125981e-05  1.8940017466095127e-01 -4.0931313877932702e-04 -9.8662060205557262e-04  1.8940693791652574e-01 2.3713895545223617e-04 4.5324323733275635e-05  1.8956215200128848e-01 2.3833361175331293e-04 -8.5334085554804770e-06  1.8964301980355688e-01 2.7986901130637709e-04 -6.5842262323503357e-05  1.8974890800230854e-01 3.5966242538579859e-04 -1.2952082718619863e-04  1.8990184654986206e-01 4.1981104870709269e-04 -2.0103314491174023e-04  1.9000932170919263e-01 3.4136381834842523e-04 -2.2493867241452160e-04  1.8980911221319507e-01 7.1568586979957969e-06 -1.4764019449685714e-04  1.8913986246845263e-01 -4.8650088699188766e-04 -6.5675459659209848e-04  1.8745928584577315e-01 9.6623295901599230e-05 -3.7741252079282741e-03  1.7041245368057539e-01 1.2469574734416268e-04 -3.4311037092581099e-05  1.7055112919947193e-01 -2.3517902852293750e-04 -9.1672944968091623e-04  1.7066467453747525e-01 1.7097828480911928e-04 5.0828887232165159e-05  1.7080379917684638e-01 1.3836889038842869e-04 9.8707499813886926e-06  1.7088578657621212e-01 1.1519894902299180e-04 -2.7176317015035850e-05  1.7098013715072696e-01 1.0679373024121676e-04 -6.7792537630453873e-05  1.7107676033551952e-01 8.8038149577899369e-05 -1.2625060790135909e-04  1.7105566040433362e-01 2.1692972164612068e-05 -1.8164675869051863e-04  1.7075861960408964e-01 -1.0932074103844933e-04 -2.1061958963674354e-04  1.7031973667497868e-01 -2.2144333121085311e-04 -8.9154969148409996e-04  1.6944070181086773e-01 3.3307395300545160e-04 -3.4110787347992814e-03  1.1478436924746366e-01 4.2328016333771404e-05 -1.4027295168417723e-05  1.1420037408197292e-01 -3.9157025552782589e-04 -7.6727005020396850e-04  1.1498331638988989e-01 4.6201604626162532e-05 4.1564103365588777e-05  1.1505301721386733e-01 -2.9830392042132577e-05 1.1034026329489697e-05  1.1506702346130195e-01 -1.1166911845479003e-04 -4.8277354182530391e-07  1.1507585321475110e-01 -1.8991869965253078e-04 6.2991729765207110e-06  1.1507684900683028e-01 -2.6622318734650149e-04 2.7170553673265800e-05  1.1498204624754534e-01 -3.2805736020941707e-04 7.1231445903276552e-05  1.1466790335398071e-01 -3.3451782707331657e-04 6.5087310599251473e-05  1.1421425060864281e-01 -2.7507847739490534e-04 -5.8202796903551984e-04  1.1452891070156732e-01 3.1331167703859563e-04 -2.5735646938807475e-03  -4.5288178590943364e-04 -8.0083922156646164e-06 -9.2221352072328194e-06  -4.6076126493506544e-04 -1.1757963938608956e-05 -7.9858260767906231e-06  -4.0989658991402223e-04 -1.8769565926071037e-05 -1.7874139506046287e-05  -3.2893797042409542e-04 -3.1876085179428680e-05 -2.5390314325485446e-05  -2.0697795969721829e-04 -4.9504721726697529e-05 -2.2817910872583138e-05  -5.7793876865556396e-05 -6.4401984644879502e-05 -6.5369562011921944e-06  9.7704686155525070e-05 -7.2239271676402861e-05 2.5725124131799263e-05  2.2679030719768460e-04 -6.9505265378732775e-05 6.7360648937242801e-05  3.0534378752902313e-04 -5.2405388255594820e-05 9.2294370416855372e-05  3.9023362774728577e-04 -2.8925330870812077e-05 7.3138604153941857e-05  4.4868025391179011e-04 -7.3876853320192956e-06 6.7075846103419252e-05  1.2579246208678377e-01 -1.4142555634790298e-04 -3.5478725001921963e-05  -2.4172291889333893e-04 -1.4423508629161067e-04 -2.8205217990707491e-05  -2.9891246788837342e-04 -9.2404706721474980e-05 -2.1060667990675870e-05  1.2643641444151660e-01 -5.7900107820539962e-04 -7.3011214495571507e-04  1.2613806167018624e-01 -2.9009053824879785e-06 8.3027389411597575e-05  -1.3288724546426701e-04 -2.5462283582200517e-04 -3.5717263397587436e-05  1.2602459862077467e-01 8.7670538263125118e-05 3.1332158498398187e-05  3.6048020539487108e-05 -3.9787035932031177e-04 -9.7877108294512929e-06  1.2598495411949112e-01 2.1130667565396274e-04 -9.0045092886653185e-05  2.4611796706668174e-04 -5.9030542197997175e-04 8.9278229404078532e-05  1.2608719633486876e-01 4.6067395113701321e-04 -3.4800281253366587e-04  4.3000142503859471e-04 -8.3387742111037065e-04 3.1871062860684755e-04  1.2645740285829110e-01 9.4899249040101316e-04 -8.2150203605183328e-04  4.3093821631816224e-04 -1.0648921485426036e-03 7.2624809795383263e-04  1.2734568035917973e-01 1.5567026065534215e-03 -1.3936602401131207e-03  1.0206533203402342e-04 -1.1078037487981102e-03 1.2285488996220775e-03  1.2860262528923386e-01 1.2328253752451120e-03 -1.5938418460107035e-03  -2.0446626578300367e-04 -7.9135438222471160e-04 1.4311067406954452e-03  1.2596630022466304e-01 9.5315025057909019e-04 -1.2577353693434660e-03  -2.4839615658873288e-04 -3.4456247737085690e-04 5.7002949950646148e-04  1.2048456444229301e-01 5.9467029929539006e-04 -6.2091881932389631e-03  -2.5011508874142553e-04 -2.3991331226214514e-04 7.8025584948189562e-04  1.8908926739965803e-01 2.5899875112443276e-04 -2.9196136565660469e-05  1.8939477807589708e-01 -5.8376583560076564e-04 -7.7177700928440448e-04  1.8937804320349017e-01 2.3814993577162796e-04 1.1013988460356687e-04  1.8949508476040264e-01 2.9389815782973703e-04 6.5678428405571479e-05  1.8955328609183705e-01 4.5391703545280169e-04 -1.3514571579190506e-05  1.8968494027882649e-01 7.6157932473601734e-04 -1.4441283432411149e-04  1.8996706742671293e-01 1.2197997494629914e-03 -3.3663189789898872e-04  1.9039469629973896e-01 1.5260581777411038e-03 -4.7106688392231730e-04  1.9046194481064738e-01 8.6353448857724670e-04 -3.4500443109003562e-04  1.8872491965617363e-01 -8.2780496381861576e-04 -6.1365194396878633e-05  1.8469135540156029e-01 4.3345643751890975e-04 -6.2721502917717246e-03  2.1053969001143741e-01 1.8019397885311170e-04 -1.8219082832757716e-06  2.1073965455771848e-01 -3.8013077203734086e-04 -7.4820247761006543e-04  2.1078781208239433e-01 2.5270664338326968e-04 1.3734874781845657e-04  2.1095246842619775e-01 2.6223894915754762e-04 1.0990769717522675e-04  2.1105961247209307e-01 3.2799463006929092e-04 6.8832015613852531e-05  2.1120652231264692e-01 4.6208333675971345e-04 -1.4915333602562138e-06  2.1144232717175104e-01 6.1122296017846866e-04 -1.4448118663418585e-04  2.1165747062173307e-01 5.7320669112584388e-04 -3.6755125817198225e-04  2.1118158992393204e-01 -2.0478573688666958e-06 -6.0093048169074324e-04  2.0942281142602745e-01 -1.0590208853384863e-03 -7.7805029008274772e-04  2.0643425222337430e-01 1.5789228454209461e-04 -5.7436462999308890e-03  1.8910175251420586e-01 1.4326856199889921e-04 2.7374432563165638e-06  1.8918241389289839e-01 -1.9580193185446743e-04 -7.0765875839524906e-04  1.8932652331296509e-01 1.9065461499631338e-04 1.3351566819274618e-04  1.8947423392689816e-01 1.