<?xml version="1.0"?>
<VTKFile type="UnstructuredGrid"  version="0.1"  >
<UnstructuredGrid>
<Piece  NumberOfPoints="539" NumberOfCells="2160">
<Points>
<DataArray  type="Float64"  NumberOfComponents="3"  format="ascii">0 0.2 0.2  0.1 0.2 0.2  0.1 0.3 0.2  0.1 0.3 0.3  0.1 0.2 0.3  0 0.2 0.3  0 0.3 0.2  0 0.3 0.3  0.2 0.2 0.2  0.2 0.3 0.2  0.2 0.3 0.3  0.2 0.2 0.3  0.3 0.2 0.2  0.3 0.3 0.2  0.3 0.3 0.3  0.3 0.2 0.3  0.4 0.2 0.2  0.4 0.3 0.2  0.4 0.3 0.3  0.4 0.2 0.3  0.5 0.2 0.2  0.5 0.3 0.2  0.5 0.3 0.3  0.5 0.2 0.3  0.6 0.2 0.2  0.6 0.3 0.2  0.6 0.3 0.3  0.6 0.2 0.3  0.7 0.2 0.2  0.7 0.3 0.2  0.7 0.3 0.3  0.7 0.2 0.3  0.8 0.2 0.2  0.8 0.3 0.2  0.8 0.3 0.3  0.8 0.2 0.3  0.9 0.2 0.2  0.9 0.3 0.2  0.9 0.3 0.3  0.9 0.2 0.3  1 0.2 0.2  1 0.3 0.2  1 0.3 0.3  1 0.2 0.3  0.1 0.4 0.2  0.1 0.4 0.3  0 0.4 0.2  0 0.4 0.3  0.2 0.4 0.2  0.2 0.4 0.3  0.3 0.4 0.2  0.3 0.4 0.3  0.4 0.4 0.2  0.4 0.4 0.3  0.5 0.4 0.2  0.5 0.4 0.3  0.6 0.4 0.2  0.6 0.4 0.3  0.7 0.4 0.2  0.7 0.4 0.3  0.8 0.4 0.2  0.8 0.4 0.3  0.9 0.4 0.2  0.9 0.4 0.3  1 0.4 0.2  1 0.4 0.3  0.1 0.5 0.2  0.1 0.5 0.3  0 0.5 0.2  0 0.5 0.3  0.2 0.5 0.2  0.2 0.5 0.3  0.3 0.5 0.2  0.3 0.5 0.3  0.4 0.5 0.2  0.4 0.5 0.3  0.5 0.5 0.2  0.5 0.5 0.3  0.6 0.5 0.2  0.6 0.5 0.3  0.7 0.5 0.2  0.7 0.5 0.3  0.8 0.5 0.2  0.8 0.5 0.3  0.9 0.5 0.2  0.9 0.5 0.3  1 0.5 0.2  1 0.5 0.3  0.1 0.6 0.2  0.1 0.6 0.3  0 0.6 0.2  0 0.6 0.3  0.2 0.6 0.2  0.2 0.6 0.3  0.3 0.6 0.2  0.3 0.6 0.3  0.4 0.6 0.2  0.4 0.6 0.3  0.5 0.6 0.2  0.5 0.6 0.3  0.6 0.6 0.2  0.6 0.6 0.3  0.7 0.6 0.2  0.7 0.6 0.3  0.8 0.6 0.2  0.8 0.6 0.3  0.9 0.6 0.2  0.9 0.6 0.3  1 0.6 0.2  1 0.6 0.3  0.1 0.7 0.2  0.1 0.7 0.3  0 0.7 0.2  0 0.7 0.3  0.2 0.7 0.2  0.2 0.7 0.3  0.3 0.7 0.2  0.3 0.7 0.3  0.4 0.7 0.2  0.4 0.7 0.3  0.5 0.7 0.2  0.5 0.7 0.3  0.6 0.7 0.2  0.6 0.7 0.3  0.7 0.7 0.2  0.7 0.7 0.3  0.8 0.7 0.2  0.8 0.7 0.3  0.9 0.7 0.2  0.9 0.7 0.3  1 0.7 0.2  1 0.7 0.3  0.1 0.8 0.2  0.1 0.8 0.3  0 0.8 0.2  0 0.8 0.3  0.2 0.8 0.2  0.2 0.8 0.3  0.3 0.8 0.2  0.3 0.8 0.3  0.4 0.8 0.2  0.4 0.8 0.3  0.5 0.8 0.2  0.5 0.8 0.3  0.6 0.8 0.2  0.6 0.8 0.3  0.7 0.8 0.2  0.7 0.8 0.3  0.8 0.8 0.2  0.8 0.8 0.3  0.9 0.8 0.2  0.9 0.8 0.3  1 0.8 0.2  1 0.8 0.3  0.1 0.3 0.4  0.1 0.2 0.4  0 0.2 0.4  0 0.3 0.4  0.2 0.3 0.4  0.2 0.2 0.4  0.3 0.3 0.4  0.3 0.2 0.4  0.4 0.3 0.4  0.4 0.2 0.4  0.5 0.3 0.4  0.5 0.2 0.4  0.6 0.3 0.4  0.6 0.2 0.4  0.7 0.3 0.4  0.7 0.2 0.4  0.8 0.3 0.4  0.8 0.2 0.4  0.9 0.3 0.4  0.9 0.2 0.4  1 0.3 0.4  1 0.2 0.4  0.1 0.4 0.4  0 0.4 0.4  0.2 0.4 0.4  0.3 0.4 0.4  0.4 0.4 0.4  0.5 0.4 0.4  0.6 0.4 0.4  0.7 0.4 0.4  0.8 0.4 0.4  0.9 0.4 0.4  1 0.4 0.4  0.1 0.5 0.4  0 0.5 0.4  0.2 0.5 0.4  0.3 0.5 0.4  0.4 0.5 0.4  0.5 0.5 0.4  0.6 0.5 0.4  0.7 0.5 0.4  0.8 0.5 0.4  0.9 0.5 0.4  1 0.5 0.4  0.1 0.6 0.4  0 0.6 0.4  0.2 0.6 0.4  0.3 0.6 0.4  0.4 0.6 0.4  0.5 0.6 0.4  0.6 0.6 0.4  0.7 0.6 0.4  0.8 0.6 0.4  0.9 0.6 0.4  1 0.6 0.4  0.1 0.7 0.4  0 0.7 0.4  0.2 0.7 0.4  0.3 0.7 0.4  0.4 0.7 0.4  0.5 0.7 0.4  0.6 0.7 0.4  0.7 0.7 0.4  0.8 0.7 0.4  0.9 0.7 0.4  1 0.7 0.4  0.1 0.8 0.4  0 0.8 0.4  0.2 0.8 0.4  0.3 0.8 0.4  0.4 0.8 0.4  0.5 0.8 0.4  0.6 0.8 0.4  0.7 0.8 0.4  0.8 0.8 0.4  0.9 0.8 0.4  1 0.8 0.4  0.1 0.3 0.5  0.1 0.2 0.5  0 0.2 0.5  0 0.3 0.5  0.2 0.3 0.5  0.2 0.2 0.5  0.3 0.3 0.5  0.3 0.2 0.5  0.4 0.3 0.5  0.4 0.2 0.5  0.5 0.3 0.5  0.5 0.2 0.5  0.6 0.3 0.5  0.6 0.2 0.5  0.7 0.3 0.5  0.7 0.2 0.5  0.8 0.3 0.5  0.8 0.2 0.5  0.9 0.3 0.5  0.9 0.2 0.5  1 0.3 0.5  1 0.2 0.5  0.1 0.4 0.5  0 0.4 0.5  0.2 0.4 0.5  0.3 0.4 0.5  0.4 0.4 0.5  0.5 0.4 0.5  0.6 0.4 0.5  0.7 0.4 0.5  0.8 0.4 0.5  0.9 0.4 0.5  1 0.4 0.5  0.1 0.5 0.5  0 0.5 0.5  0.2 0.5 0.5  0.3 0.5 0.5  0.4 0.5 0.5  0.5 0.5 0.5  0.6 0.5 0.5  0.7 0.5 0.5  0.8 0.5 0.5  0.9 0.5 0.5  1 0.5 0.5  0.1 0.6 0.5  0 0.6 0.5  0.2 0.6 0.5  0.3 0.6 0.5  0.4 0.6 0.5  0.5 0.6 0.5  0.6 0.6 0.5  0.7 0.6 0.5  0.8 0.6 0.5  0.9 0.6 0.5  1 0.6 0.5  0.1 0.7 0.5  0 0.7 0.5  0.2 0.7 0.5  0.3 0.7 0.5  0.4 0.7 0.5  0.5 0.7 0.5  0.6 0.7 0.5  0.7 0.7 0.5  0.8 0.7 0.5  0.9 0.7 0.5  1 0.7 0.5  0.1 0.8 0.5  0 0.8 0.5  0.2 0.8 0.5  0.3 0.8 0.5  0.4 0.8 0.5  0.5 0.8 0.5  0.6 0.8 0.5  0.7 0.8 0.5  0.8 0.8 0.5  0.9 0.8 0.5  1 0.8 0.5  0.1 0.3 0.6  0.1 0.2 0.6  0 0.2 0.6  0 0.3 0.6  0.2 0.3 0.6  0.2 0.2 0.6  0.3 0.3 0.6  0.3 0.2 0.6  0.4 0.3 0.6  0.4 0.2 0.6  0.5 0.3 0.6  0.5 0.2 0.6  0.6 0.3 0.6  0.6 0.2 0.6  0.7 0.3 0.6  0.7 0.2 0.6  0.8 0.3 0.6  0.8 0.2 0.6  0.9 0.3 0.6  0.9 0.2 0.6  1 0.3 0.6  1 0.2 0.6  0.1 0.4 0.6  0 0.4 0.6  0.2 0.4 0.6  0.3 0.4 0.6  0.4 0.4 0.6  0.5 0.4 0.6  0.6 0.4 0.6  0.7 0.4 0.6  0.8 0.4 0.6  0.9 0.4 0.6  1 0.4 0.6  0.1 0.5 0.6  0 0.5 0.6  0.2 0.5 0.6  0.3 0.5 0.6  0.4 0.5 0.6  0.5 0.5 0.6  0.6 0.5 0.6  0.7 0.5 0.6  0.8 0.5 0.6  0.9 0.5 0.6  1 0.5 0.6  0.1 0.6 0.6  0 0.6 0.6  0.2 0.6 0.6  0.3 0.6 0.6  0.4 0.6 0.6  0.5 0.6 0.6  0.6 0.6 0.6  0.7 0.6 0.6  0.8 0.6 0.6  0.9 0.6 0.6  1 0.6 0.6  0.1 0.7 0.6  0 0.7 0.6  0.2 0.7 0.6  0.3 0.7 0.6  0.4 0.7 0.6  0.5 0.7 0.6  0.6 0.7 0.6  0.7 0.7 0.6  0.8 0.7 0.6  0.9 0.7 0.6  1 0.7 0.6  0.1 0.8 0.6  0 0.8 0.6  0.2 0.8 0.6  0.3 0.8 0.6  0.4 0.8 0.6  0.5 0.8 0.6  0.6 0.8 0.6  0.7 0.8 0.6  0.8 0.8 0.6  0.9 0.8 0.6  1 0.8 0.6  0.1 0.3 0.7  0.1 0.2 0.7  0 0.2 0.7  0 0.3 0.7  0.2 0.3 0.7  0.2 0.2 0.7  0.3 0.3 0.7  0.3 0.2 0.7  0.4 0.3 0.7  0.4 0.2 0.7  0.5 0.3 0.7  0.5 0.2 0.7  0.6 0.3 0.7  0.6 0.2 0.7  0.7 0.3 0.7  0.7 0.2 0.7  0.8 0.3 0.7  0.8 0.2 0.7  0.9 0.3 0.7  0.9 0.2 0.7  1 0.3 0.7  1 0.2 0.7  0.1 0.4 0.7  0 0.4 0.7  0.2 0.4 0.7  0.3 0.4 0.7  0.4 0.4 0.7  0.5 0.4 0.7  0.6 0.4 0.7  0.7 0.4 0.7  0.8 0.4 0.7  0.9 0.4 0.7  1 0.4 0.7  0.1 0.5 0.7  0 0.5 0.7  0.2 0.5 0.7  0.3 0.5 0.7  0.4 0.5 0.7  0.5 0.5 0.7  0.6 0.5 0.7  0.7 0.5 0.7  0.8 0.5 0.7  0.9 0.5 0.7  1 0.5 0.7  0.1 0.6 0.7  0 0.6 0.7  0.2 0.6 0.7  0.3 0.6 0.7  0.4 0.6 0.7  0.5 0.6 0.7  0.6 0.6 0.7  0.7 0.6 0.7  0.8 0.6 0.7  0.9 0.6 0.7  1 0.6 0.7  0.1 0.7 0.7  0 0.7 0.7  0.2 0.7 0.7  0.3 0.7 0.7  0.4 0.7 0.7  0.5 0.7 0.7  0.6 0.7 0.7  0.7 0.7 0.7  0.8 0.7 0.7  0.9 0.7 0.7  1 0.7 0.7  0.1 0.8 0.7  0 0.8 0.7  0.2 0.8 0.7  0.3 0.8 0.7  0.4 0.8 0.7  0.5 0.8 0.7  0.6 0.8 0.7  0.7 0.8 0.7  0.8 0.8 0.7  0.9 0.8 0.7  1 0.8 0.7  0.1 0.3 0.8  0.1 0.2 0.8  0 0.2 0.8  0 0.3 0.8  0.2 0.3 0.8  0.2 0.2 0.8  0.3 0.3 0.8  0.3 0.2 0.8  0.4 0.3 0.8  0.4 0.2 0.8  0.5 0.3 0.8  0.5 0.2 0.8  0.6 0.3 0.8  0.6 0.2 0.8  0.7 0.3 0.8  0.7 0.2 0.8  0.8 0.3 0.8  0.8 0.2 0.8  0.9 0.3 0.8  0.9 0.2 0.8  1 0.3 0.8  1 0.2 0.8  0.1 0.4 0.8  0 0.4 0.8  0.2 0.4 0.8  0.3 0.4 0.8  0.4 0.4 0.8  0.5 0.4 0.8  0.6 0.4 0.8  0.7 0.4 0.8  0.8 0.4 0.8  0.9 0.4 0.8  1 0.4 0.8  0.1 0.5 0.8  0 0.5 0.8  0.2 0.5 0.8  0.3 0.5 0.8  0.4 0.5 0.8  0.5 0.5 0.8  0.6 0.5 0.8  0.7 0.5 0.8  0.8 0.5 0.8  0.9 0.5 0.8  1 0.5 0.8  0.1 0.6 0.8  0 0.6 0.8  0.2 0.6 0.8  0.3 0.6 0.8  0.4 0.6 0.8  0.5 0.6 0.8  0.6 0.6 0.8  0.7 0.6 0.8  0.8 0.6 0.8  0.9 0.6 0.8  1 0.6 0.8  0.1 0.7 0.8  0 0.7 0.8  0.2 0.7 0.8  0.3 0.7 0.8  0.4 0.7 0.8  0.5 0.7 0.8  0.6 0.7 0.8  0.7 0.7 0.8  0.8 0.7 0.8  0.9 0.7 0.8  1 0.7 0.8  0.1 0.8 0.8  0 0.8 0.8  0.2 0.8 0.8  0.3 0.8 0.8  0.4 0.8 0.8  0.5 0.8 0.8  0.6 0.8 0.8  0.7 0.8 0.8  0.8 0.8 0.8  0.9 0.8 0.8  1 0.8 0.8  </DataArray>
</Points>
<Cells>
[...]
<PointData  Vectors="f_23"> 
<DataArray  type="Float64"  Name="f_23"  NumberOfComponents="3" format="ascii">6.8510011636515808e-04 1.0998229020077872e-04 -1.0968618401994992e-05  6.2904731794393191e-04 1.5362299919086317e-04 -1.7170063076210718e-05  6.7819116313391401e-04 1.1285290157259047e-04 -1.0964628491612153e-05  7.4481827504098611e-02 2.1220426135986150e-04 4.5832578856600892e-04  6.2924911278650455e-04 1.4658968402575463e-04 -1.4151952314261270e-05  6.7437126821639560e-04 1.0169186117881596e-04 -6.1766393835608693e-06  7.3042633662417770e-04 7.7988029926504376e-05 -9.0840849640927087e-06  7.3851443762895680e-02 5.9195340491921869e-04 1.0764373734949572e-03  5.3669352020212777e-04 2.3333165525715036e-04 -3.0528337469328757e-05  5.8885366408743150e-04 1.8123653812470591e-04 -1.9232007787920196e-05  7.3938636869476757e-02 4.9999177603547219e-05 2.3457005839923336e-04  5.4710571813166588e-04 2.3620565004025916e-04 -2.8198837336780537e-05  4.1041038508670726e-04 2.9894724135692396e-04 -4.7638281493492138e-05  4.6549408509307402e-04 2.3653899834819470e-04 -2.7044302596381895e-05  7.3885249578104092e-02 -4.7993205830445759e-05 2.9497978519237153e-04  4.2842549195955026e-04 3.2468890926650297e-04 -4.8765774810109807e-05  2.4744207305529733e-04 3.3961529430033777e-04 -5.9664812486582418e-05  3.0153239170031116e-04 2.7348432244896727e-04 -3.1215053801257122e-05  7.3701080447183903e-02 -1.5445450821009848e-04 4.4474284853713913e-04  2.8148365128341307e-04 3.9886452991191927e-04 -6.9987216483498465e-05  3.1195581445697906e-05 3.3849757545335722e-04 -4.8802061160740973e-05  8.1172957800369522e-05 2.8072065990146635e-04 -1.9992675788136650e-05  7.3385702845960368e-02 -2.9181113964129880e-04 6.4329471755279581e-04  9.5442869400597601e-05 4.3610197243091036e-04 -7.3069710279764408e-05  -2.6099176083669900e-04 2.8594845212244816e-04 -2.5725894266291961e-06  -2.1462680522641819e-04 2.4918575927736463e-04 1.4988285145943166e-05  7.2987309177813667e-02 -4.2255973921849846e-04 8.1677391063118712e-04  -1.5882662413059477e-04 4.0645957221100896e-04 -3.1221480085768691e-05  -6.1946524583994501e-04 1.9540377798824715e-04 5.1424268423091291e-05  -5.7901629698782194e-04 1.8292506607786395e-04 5.4890664067940771e-05  7.2738553686062357e-02 -5.0185836505515743e-04 7.7962799628138082e-04  -5.0252031950295340e-04 3.0190184081568035e-04 4.8964567158332391e-05  -9.3562515241295968e-04 9.8932187394805383e-05 5.5367252376487771e-05  -9.2314594627604634e-04 1.0460190285302308e-04 5.4973616024840612e-05  7.3280011627458577e-02 -4.9746157356111563e-04 2.0484808262475712e-04  -8.7013956227305507e-04 1.5833975816207171e-04 6.9599829724324561e-05  -1.0879505493093472e-03 3.3840799483065302e-05 1.1771508876808274e-05  -1.1062824258342464e-03 3.8904673293220899e-05 3.0473997660215418e-05  7.5223882439055340e-02 -3.1656077710987045e-04 -5.5483551874700341e-04  -1.0943730132038738e-03 6.6768273818556311e-05 1.5474895639229747e-05  -1.1605769858555714e-03 4.8122365223859440e-05 4.5551098601755007e-05  -1.1622944732382651e-03 3.3600251440493132e-05 4.5998045424847317e-05  7.7261129016825275e-02 2.4272495168897420e-04 1.0949474786994006e-03  -1.1765798594063324e-03 5.2880076916695156e-05 3.8893097817835078e-05  7.3963613818682570e-04 7.3079039566462665e-05 -5.9676432401206196e-06  1.1447089668404824e-01 -1.0742119609527919e-04 4.3806116621798789e-04  7.9312871282504469e-04 5.0766498994914780e-05 -5.7699469057984961e-06  1.1363248843888116e-01 5.9835118998408478e-04 1.1892399709969555e-03  6.3903858128674810e-04 1.1920776455252663e-04 -6.7177707615899656e-06  1.1399320860133179e-01 -1.3924488421671155e-04 2.1042680814434069e-04  5.0425789681979121e-04 1.5721483857738589e-04 -4.7550475446079180e-06  1.1385907571046458e-01 -1.8100200902659800e-04 2.2351223761219222e-04  3.2131293130284526e-04 1.8113013025478785e-04 3.4619935106317113e-06  1.1370333973548311e-01 -2.5635813552539715e-04 2.8373346080610724e-04  7.4936100757105068e-05 1.8415215485866453e-04 2.4273785492800679e-05  1.1349033343443755e-01 -3.4814547348942015e-04 3.2932044681862715e-04  -2.4758739075385003e-04 1.6275847899566094e-04 5.8552838294707384e-05  1.1331128417440085e-01 -3.9740366674433515e-04 2.8512684781455561e-04  -6.3046384193352219e-04 1.2186566448687689e-04 8.5949061882739425e-05  1.1339584254064380e-01 -3.3010886037216540e-04 2.5299946262991954e-05  -9.7979711366708456e-04 7.4622340977664620e-05 7.1072367116699318e-05  1.1411967590425220e-01 -1.2160633853058352e-04 -5.3062055121324062e-04  -1.1592103016161664e-03 3.1924789568682599e-05 3.9213348296305560e-05  1.1571413277800009e-01 1.6695895426775402e-04 -7.9531012082662792e-04  -1.2102614655709414e-03 2.4284043026296949e-05 5.9073680913250915e-05  1.1770461155851494e-01 6.8450252325877095e-05 1.1310941420141919e-03  7.7891347296880388e-04 4.3156105930305602e-05 -2.0536872546563519e-06  1.2485273108825441e-01 -6.1679354855322850e-05 3.8493868306530791e-04  8.3323457759986775e-04 2.8272867179230445e-05 -3.1424103549021136e-06  1.2408372531093630e-01 4.2751566138083096e-04 1.1555047699934949e-03  6.7216090728500623e-04 7.2191140456586534e-05 -5.5157456035909428e-08  1.2442450085764044e-01 -1.5333637173633503e-04 1.6057039489748303e-04  5.2769569216028667e-04 9.5628110714520790e-05 6.5927177277208039e-06  1.2427415155331906e-01 -1.6417690183835341e-04 1.6386084099786062e-04  3.2925974068630129e-04 1.0796496907346501e-04 2.0651030968590481e-05  1.2409379025936756e-01 -1.8572007690237439e-04 1.9710868746317488e-04  6.4381569883499880e-05 1.0415336628042769e-04 4.5656681624274775e-05  1.2389778203100317e-01 -2.0956267590613921e-04 2.0087138744375588e-04  -2.7357847401968409e-04 8.4194908184379670e-05 7.8982762511214390e-05  1.2381277923759011e-01 -1.9246526790894607e-04 1.1008695940916471e-04  -6.6325925125337924e-04 5.7006558013702231e-05 1.0061064346197435e-04  1.2407072371605789e-01 -8.0958886137240835e-05 -1.7187627962753633e-04  -1.0114939111996897e-03 3.5584330279132735e-05 7.9250877437990106e-05  1.2491260851670274e-01 1.3067386422583975e-04 -6.4415597839598824e-04  -1.1904146716887997e-03 1.5509930198284200e-05 4.3517449422173166e-05  1.2630351742934318e-01 3.2540511938896352e-04 -6.6762513418874554e-04  -1.2418564085276724e-03 1.6676474830582986e-05 6.2939714346907570e-05  1.2812084982118721e-01 8.8302682375680357e-05 9.9379976796607102e-04  8.0360610038699484e-04 2.2204046364247741e-05 6.8898087739730840e-07  1.1436113424356628e-01 -6.4920391217822496e-05 3.3246413674643555e-04  8.5590276839820159e-04 8.6123171161266555e-06 -8.2804099051285549e-08  1.1368644260396807e-01 2.4420872946915825e-04 1.0718282257424340e-03  6.9544377360635759e-04 4.0449564383514754e-05 2.6040907374715373e-06  1.1398176643172805e-01 -1.1988448154815021e-04 1.3699112504641578e-04  5.4476364439433821e-04 5.7212210480767771e-05 9.2028659109770981e-06  1.1384947852463834e-01 -9.9891867874015325e-05 1.3681623513212514e-04  3.3441181420909468e-04 6.6225899230384528e-05 2.3655944221271876e-05  1.1367722407039782e-01 -7.7336319408292614e-05 1.6227019926275349e-04  5.5620329869760758e-05 6.2644147916293748e-05 4.7464797201577841e-05  1.1349901876938297e-01 -5.0825253925093607e-05 1.5856064787293724e-04  -2.9163383104524983e-04 4.6888040754217278e-05 7.6371060600771557e-05  1.1345611346451971e-01 -8.4957734908135347e-07 6.9784998791812841e-05  -6.8087978499639364e-04 2.7975400037516709e-05 9.3444085584547636e-05  1.1376028764043955e-01 9.0547201794000643e-05 -1.7841118749831034e-04  -1.0230599900608167e-03 1.9368408213278618e-05 7.2513100282434349e-05  1.1456677793146250e-01 2.0749794324909397e-04 -5.3759300087277587e-04  -1.2033352338792103e-03 5.7732868198762818e-06 3.9973185934039871e-05  1.1572757199185207e-01 2.3031654049698530e-04 -4.3806523011165593e-04  -1.2587311107924749e-03 1.7226393238512483e-05 5.5520840697065264e-05  1.1711933414826815e-01 3.7830480147564342e-05 9.3064135341201586e-04  8.2387277877071991e-04 6.0875220203964279e-06 2.2109290998343313e-06  7.5251663054775694e-02 -5.7942819908404864e-05 2.6318707922925175e-04  8.6962339734164139e-04 1.3721709145047615e-07 3.3129389787695932e-06  7.5281383975341468e-02 3.3409616944401327e-04 8.6134972301790506e-04  7.2201699483270820e-04 1.9710345510069766e-05 1.7540678976480937e-06  7.4940819069617290e-02 -4.2754381051879955e-05 1.1227805743970902e-04  5.7250565561568301e-04 3.7732746248788909e-05 3.1840012610949398e-06  7.4866573102331385e-02 3.4414806085424036e-05 1.0689444784566116e-04  3.5746515731591242e-04 5.2424566027658322e-05 1.2976639949386295e-05  7.4767830867196503e-02 1.0498924237756100e-04 1.2373111857796033e-04  7.0824841138127979e-05 5.7470204115504599e-05 3.1776765224489279e-05  7.4652866706340276e-02 1.7912100677768922e-04 1.1322832131204108e-04  -2.8428736295005921e-04 5.1987863778255555e-05 5.4773594458440852e-05  7.4622355491477832e-02 2.5642908067172187e-04 3.3985996682525100e-05  -6.7825256372951485e-04 4.1261765969676484e-05 6.8882293182535821e-05  7.4826031414174640e-02 3.2453471111005237e-04 -1.5439548962518286e-04  -1.0247956627635105e-03 3.3424754385869897e-05 5.5336670504304544e-05  7.5387984073662831e-02 3.5982547537025269e-04 -3.8231427781610055e-04  -1.2098362508153422e-03 2.2169866747014338e-05 3.0430634977713711e-05  7.6306987121984124e-02 3.5248353537057828e-04 -2.5689030723741879e-04  -1.2678621901568553e-03 2.6039958864006562e-05 3.8163822817482769e-05  7.6722183151044676e-02 2.0298238835505065e-05 9.0190035544535508e-04  8.5679922054713404e-04 1.8031166495918199e-06 2.6629462122228534e-06  8.6874618009574354e-04 2.9366095726483965e-06 1.3274910963127992e-06  8.9312733446488251e-04 -5.2894867544828019e-06 3.7767972723852372e-06  8.9436094888524509e-04 -3.4143669883775590e-06 2.4059619051196003e-06  7.7284306952755141e-04 1.5623757496085625e-05 -1.8347740133137855e-07  8.0674884665586709e-04 9.4017916070904285e-06 3.5888914739361614e-07  6.4490272173597723e-04 3.1862378765266426e-05 6.4385708836649196e-07  6.9704518327145745e-04 2.8013308217482682e-05 -4.6894224132710675e-07  4.5853318220991985e-04 4.8138214372581385e-05 1.4433468035038913e-06  5.3523102989873513e-04 4.6434785952628916e-05 4.3162338442864587e-06  2.0115041365818172e-04 5.7391741789251999e-05 8.3651406571393142e-06  3.0837912087689151e-04 5.7805234616063725e-05 1.8665599106152087e-05  -1.3125372807917181e-04 5.6969581458354734e-05 2.1927364399135289e-05  8.3804596547050906e-06 5.8491649377539052e-05 4.1885753098047854e-05  -5.2508139326225690e-04 4.9027889584323465e-05 3.7998279752680186e-05  -3.6290050852353235e-04 5.0953203967402089e-05 6.6379372767766588e-05  -9.1808830181191417e-04 3.4857948346521770e-05 4.6110485257205441e-05  -7.6879208543754129e-04 4.2312869423024403e-05 7.5265938473886404e-05  -1.1773295920855336e-03 2.4690408610578765e-05 3.1381003386986638e-05  -1.0863339820195851e-03 3.0941003885038213e-05 5.4299301231737901e-05  -1.2606797466593496e-03 2.9285808906421089e-05 2.0284754951637305e-05  -1.2140284776613062e-03 3.2569163380474317e-05 3.7320172970761204e-05  1.1456967539654317e-01 1.7895376906537901e-04 2.2727462153018040e-04  6.2371666334194915e-04 1.4582617224650175e-04 -2.9630957924056174e-06  6.7073051389077891e-04 9.8328711227852787e-05 2.1779344719280751e-06  1.1385219852710894e-01 5.9632896090791869e-04 1.0125308373800019e-03  1.1414789881494602e-01 5.0967274401729307e-05 1.5143007183049113e-04  5.3780145212578166e-04 2.4725422855504807e-04 -1.0446722608101754e-05  1.1414594243125237e-01 -5.2849359081337732e-05 2.9398482422982004e-04  4.1452967839541858e-04 3.6309891220827150e-04 -2.5243593802977958e-05  1.1407385772527968e-01 -1.7497592479435027e-04 5.3401721031488423e-04  2.6476409145672686e-04 4.9067594861286652e-04 -4.8004975218767933e-05  1.1384798909567659e-01 -3.6439009920680561e-04 8.6046067082412960e-04  8.8346365991501643e-05 6.0779000563974299e-04 -6.7826930324314761e-05  1.1339314117616252e-01 -6.0391820644911003e-04 1.1886736790683043e-03  -1.3660067540112596e-04 6.5392531895758156e-04 -4.3721501637994378e-05  1.1271215231321241e-01 -7.3671283269878367e-04 1.2210811736910639e-03  -4.5316256740623366e-04 5.5439381715961095e-04 7.3614778477261322e-05  1.1274570054383365e-01 -7.5609397589083234e-04 4.8619730498583661e-04  -8.2752533642936870e-04 3.1606356639337073e-04 1.5694022053831057e-04  1.1550931067739563e-01 -6.5203230039055421e-04 -9.3695961571546831e-04  -1.1091069484282269e-03 1.3065337288846419e-04 7.6745837760220040e-06  1.1830018128997512e-01 2.1965168760852379e-04 1.9286940670488332e-03  -1.2469781892862641e-03 9.2664619297731850e-05 2.5934311388553275e-05  1.7655271391412886e-01 -1.6457357570781321e-04 2.3062614693693777e-04  1.7615511667838021e-01 6.3808370083856634e-04 1.1415331751591911e-03  1.7619335337489847e-01 -1.6294561629118351e-04 1.5834348782398276e-04  1.7600697835854653e-01 -2.2436337056839768e-04 2.7647768432002948e-04  1.7590112705710956e-01 -3.5345825469679920e-04 4.2387862570073757e-04  1.7574796759458131e-01 -5.4604993615629414e-04 5.4482676221511914e-04  1.7553723191085074e-01 -7.3074413217612808e-04 5.1705794495597883e-04  1.7544265809432075e-01 -7.1420563208476992e-04 9.2732965841300403e-05  1.7609604925823480e-01 -3.1508407291511159e-04 -9.5421905857511391e-04  1.7830829119639083e-01 3.2167275764393561e-04 -1.7274768478262648e-03  1.8113980347518932e-01 -6.6427172474969209e-05 1.5604085511498613e-03  1.9361086938481797e-01 -7.2267971291385108e-05 1.9458372034346756e-04  1.9331803596565669e-01 4.6291346036758126e-04 1.1295683109331309e-03  1.9330687220614626e-01 -1.7002172518376017e-04 1.3089366644226136e-04  1.9309795659450621e-01 -1.9234218230335202e-04 2.3227710857829073e-04  1.9295184012078306e-01 -2.4611706682816238e-04 3.3854659359682925e-04  1.9279474869568719e-01 -3.2921811714885528e-04 3.9522349020271788e-04  1.9267490596482359e-01 -3.8165711889724663e-04 3.0244094929783106e-04  1.9284573848251382e-01 -2.7863879176618300e-04 -1.2990351637437992e-04  1.9384049942354339e-01 9.7582809034409102e-05 -1.0459193309132677e-03  1.9587041869001243e-01 6.1493913686952223e-04 -1.4734815051248116e-03  1.9831554206127103e-01 9.8210127073437679e-05 1.2337968981661147e-03  1.7641514028529492e-01 -6.2145968362729097e-05 1.5745316163876357e-04  1.7623572662568993e-01 2.6217620061881467e-04 1.0575213625675390e-03  1.7615375344111672e-01 -1.2788880743482147e-04 1.0975464419647970e-04  1.7597315564617555e-01 -1.1134459357811993e-04 1.9860976061670217e-04  1.7583208880776230e-01 -1.0214241669397179e-04 2.8573680783120100e-04  1.7568543382102136e-01 -1.0411179695967832e-04 3.2689713881799728e-04  1.7561030037208242e-01 -8.4454902598152606e-05 2.4228872967818385e-04  1.7587991979635345e-01 1.6265179646116889e-05 -1.1215335441609155e-04  1.7690532129919287e-01 2.4245165762431836e-04 -8.3210039658261105e-04  1.7861388583211119e-01 4.5499000513857805e-04 -9.7727447298780277e-04  1.8020177970165913e-01 1.7619829784445645e-05 1.1723320301312765e-03  1.1450623644313006e-01 -2.8856860162162783e-05 8.0939523827754738e-05  1.1505518053839829e-01 3.6248720831378646e-04 8.6335105627378603e-04  1.1429695287458096e-01 -3.5708111029391076e-05 6.0748065452132810e-05  1.1419090507785598e-01 3.6785956792186842e-05 1.3097084042640596e-04  1.1412362303564207e-01 1.0850526375716621e-04 1.9347990113039422e-04  1.1404895580230416e-01 1.7421527277051619e-04 2.1883054813842581e-04  1.1400343558354692e-01 2.4147652359861251e-04 1.4687908531186975e-04  1.1417873235241430e-01 3.1728109784068449e-04 -1.2504137699556161e-04  1.1490883012851005e-01 3.9780021824851645e-04 -5.9109917849901948e-04  1.1622818499662217e-01 4.6297119670229357e-04 -4.9843601654105021e-04  1.1637367413286144e-01 4.2582349265881943e-05 1.2444030798499626e-03  8.7130760676323458e-04 5.0247575439095986e-06 -5.7923069190116867e-07  8.9529796328630356e-04 1.0910591560047331e-06 1.4284147789270530e-06  8.1064138398254494e-04 1.2410173154691357e-05 1.1992122589698331e-06  7.0676357710821019e-04 2.8894789148081213e-05 6.8716987051507605e-06  5.5765756269382494e-04 4.3567551768226471e-05 2.1349033696254546e-05  3.4680561787467953e-04 5.2056441750745620e-05 5.0517762145478487e-05  5.9870644227677573e-05 4.9703975637895121e-05 9.5423427476714506e-05  -3.1437769999809916e-04 3.7883624197947287e-05 1.4471658237958420e-04  -7.5392049877088293e-04 2.5629519767371278e-05 1.6679661991303205e-04  -1.1196437463185437e-03 1.5349148145232011e-05 1.2817047914479642e-04  -1.2620134044017150e-03 1.8010585668917452e-05 1.0231031843231177e-04  1.2503728152101487e-01 1.6133195832360582e-04 1.5578065713051903e-04  6.2835588745321946e-04 1.3627866418002552e-04 1.2741708514527713e-05  6.7693049602993941e-04 8.9159544600040823e-05 1.0875270746621266e-05  1.2436931179035107e-01 6.0711315526770565e-04 7.8685745411655390e-04  1.2469012329065607e-01 2.1274691133499355e-05 5.3579053019373962e-05  5.4151998929899772e-04 2.3884202914972312e-04 2.2610265167369184e-05  1.2478448707728390e-01 -8.0398391966852596e-05 1.5396376578181490e-04  4.1644216856031544e-04 3.7186631884219260e-04 2.9671901718787906e-05  1.2479781238494726e-01 -2.0891000424851439e-04 3.4504744180368567e-04  2.6102032612075333e-04 5.5269174099627596e-04 2.6678069574962986e-05  1.2463781993022645e-01 -4.4502316452194496e-04 6.5651277678211871e-04  8.2091221451002579e-05 7.8827693913235042e-04 2.7433548066104033e-06  1.2414113386148916e-01 -8.9084193257053877e-04 1.0881897307291563e-03  -1.3671260916482865e-04 1.0247404127569166e-03 -2.8332103903069683e-05  1.2310217839091467e-01 -1.4475762037845083e-03 1.3897832864544493e-03  -4.6036201565133897e-04 1.0908423339670793e-03 4.6012890339065277e-05  1.2205756948943616e-01 -1.1640164789792744e-03 9.2831402255749089e-04  -7.9636780424643602e-04 7.8849088764679567e-04 4.1330461739844565e-04  1.2551086268738249e-01 -1.0306349821875894e-03 -7.5991077142606857e-04  -1.0623295525936808e-03 3.5111457043675754e-04 9.9299074263764733e-05  1.3142567439704464e-01 -8.1327308640352387e-04 3.7391958928997856e-03  -1.2455882642821560e-03 2.3368618382818999e-04 -1.0902153861616103e-04  1.9369051805083662e-01 -1.8967468786206193e-04 2.0530684171060992e-04  1.9335472957658464e-01 6.4771061311855443e-04 9.0124480367008311e-04  1.9339688622299964e-01 -1.8413719957393275e-04 9.4847017204981548e-05  1.9325990454159331e-01 -2.5695918928097275e-04 1.9734836677996582e-04  1.9316798865598012e-01 -4.2095442292744488e-04 3.3900293131808253e-04  1.9298059155739633e-01 -7.1203067928544159e-04 4.6794180644216948e-04  1.9261718921116119e-01 -1.1300159707198323e-03 4.6402271946226328e-04  1.9216889720576308e-01 -1.3922542562596833e-03 1.5140202329365194e-05  1.9255538749575646e-01 -7.3306257736080807e-04 -1.2540775400446107e-03  1.9553236446306746e-01 8.8732405756466093e-04 -3.3761276245566157e-03  2.0024982749776765e-01 -3.9551891431694218e-04 2.1071243761411032e-03  2.1293194792570042e-01 -9.2607749938825357e-05 1.8913812535386148e-04  2.1269583732832775e-01 4.6156727594002774e-04 9.1540745580260239e-04  2.1269236435034877e-01 -1.8255954513042572e-04 8.5519139357139752e-05  2.1251677805006972e-01 -2.1455100090033588e-04 1.7295646628238910e-04  2.1238124974026834e-01 -2.9549464273747158e-04 2.7070466960899372e-04  2.1218825440111078e-01 -4.3633758398716756e-04 3.1635902641520325e-04  2.1190178596550543e-01 -5.8109303352832939e-04 2.0882703631600275e-04  2.1172889968579414e-01 -5.1941085395883658e-04 -2.5125328654484341e-04  2.1273473994726066e-01 1.1137020542483131e-04 -1.2975466151354767e-03  2.1585656714132631e-01 1.2307276591567923e-03 -3.0526916459589302e-03  2.1961993696432663e-01 8.9217724148117945e-05 1.1311910383303991e-03  1.9359586298168255e-01 -7.2473475525015884e-05 1.6685367208633812e-04  1.9347386562578170e-01 2.5679018732942792e-04 8.8679221389861428e-04  1.9339596167906803e-01 -1.3371208987432090e-04 7.2427842292118895e-05  1.9324692378443220e-01 -1.1898538904623486e-04 1.4727682184940258e-04  1.9311559713450424e-01 -1.2481940849066295e-04 2.2467884227639635e-04  1.9293904210965396e-01 -1.5330647649602363e-04 2.5218838434084851e-04  1.9