<?xml version="1.0"?>
<VTKFile type="UnstructuredGrid"  version="0.1"  >
<UnstructuredGrid>
<Piece  NumberOfPoints="539" NumberOfCells="2160">
<Points>
<DataArray  type="Float64"  NumberOfComponents="3"  format="ascii">0 0.2 0.2  0.1 0.2 0.2  0.1 0.3 0.2  0.1 0.3 0.3  0.1 0.2 0.3  0 0.2 0.3  0 0.3 0.2  0 0.3 0.3  0.2 0.2 0.2  0.2 0.3 0.2  0.2 0.3 0.3  0.2 0.2 0.3  0.3 0.2 0.2  0.3 0.3 0.2  0.3 0.3 0.3  0.3 0.2 0.3  0.4 0.2 0.2  0.4 0.3 0.2  0.4 0.3 0.3  0.4 0.2 0.3  0.5 0.2 0.2  0.5 0.3 0.2  0.5 0.3 0.3  0.5 0.2 0.3  0.6 0.2 0.2  0.6 0.3 0.2  0.6 0.3 0.3  0.6 0.2 0.3  0.7 0.2 0.2  0.7 0.3 0.2  0.7 0.3 0.3  0.7 0.2 0.3  0.8 0.2 0.2  0.8 0.3 0.2  0.8 0.3 0.3  0.8 0.2 0.3  0.9 0.2 0.2  0.9 0.3 0.2  0.9 0.3 0.3  0.9 0.2 0.3  1 0.2 0.2  1 0.3 0.2  1 0.3 0.3  1 0.2 0.3  0.1 0.4 0.2  0.1 0.4 0.3  0 0.4 0.2  0 0.4 0.3  0.2 0.4 0.2  0.2 0.4 0.3  0.3 0.4 0.2  0.3 0.4 0.3  0.4 0.4 0.2  0.4 0.4 0.3  0.5 0.4 0.2  0.5 0.4 0.3  0.6 0.4 0.2  0.6 0.4 0.3  0.7 0.4 0.2  0.7 0.4 0.3  0.8 0.4 0.2  0.8 0.4 0.3  0.9 0.4 0.2  0.9 0.4 0.3  1 0.4 0.2  1 0.4 0.3  0.1 0.5 0.2  0.1 0.5 0.3  0 0.5 0.2  0 0.5 0.3  0.2 0.5 0.2  0.2 0.5 0.3  0.3 0.5 0.2  0.3 0.5 0.3  0.4 0.5 0.2  0.4 0.5 0.3  0.5 0.5 0.2  0.5 0.5 0.3  0.6 0.5 0.2  0.6 0.5 0.3  0.7 0.5 0.2  0.7 0.5 0.3  0.8 0.5 0.2  0.8 0.5 0.3  0.9 0.5 0.2  0.9 0.5 0.3  1 0.5 0.2  1 0.5 0.3  0.1 0.6 0.2  0.1 0.6 0.3  0 0.6 0.2  0 0.6 0.3  0.2 0.6 0.2  0.2 0.6 0.3  0.3 0.6 0.2  0.3 0.6 0.3  0.4 0.6 0.2  0.4 0.6 0.3  0.5 0.6 0.2  0.5 0.6 0.3  0.6 0.6 0.2  0.6 0.6 0.3  0.7 0.6 0.2  0.7 0.6 0.3  0.8 0.6 0.2  0.8 0.6 0.3  0.9 0.6 0.2  0.9 0.6 0.3  1 0.6 0.2  1 0.6 0.3  0.1 0.7 0.2  0.1 0.7 0.3  0 0.7 0.2  0 0.7 0.3  0.2 0.7 0.2  0.2 0.7 0.3  0.3 0.7 0.2  0.3 0.7 0.3  0.4 0.7 0.2  0.4 0.7 0.3  0.5 0.7 0.2  0.5 0.7 0.3  0.6 0.7 0.2  0.6 0.7 0.3  0.7 0.7 0.2  0.7 0.7 0.3  0.8 0.7 0.2  0.8 0.7 0.3  0.9 0.7 0.2  0.9 0.7 0.3  1 0.7 0.2  1 0.7 0.3  0.1 0.8 0.2  0.1 0.8 0.3  0 0.8 0.2  0 0.8 0.3  0.2 0.8 0.2  0.2 0.8 0.3  0.3 0.8 0.2  0.3 0.8 0.3  0.4 0.8 0.2  0.4 0.8 0.3  0.5 0.8 0.2  0.5 0.8 0.3  0.6 0.8 0.2  0.6 0.8 0.3  0.7 0.8 0.2  0.7 0.8 0.3  0.8 0.8 0.2  0.8 0.8 0.3  0.9 0.8 0.2  0.9 0.8 0.3  1 0.8 0.2  1 0.8 0.3  0.1 0.3 0.4  0.1 0.2 0.4  0 0.2 0.4  0 0.3 0.4  0.2 0.3 0.4  0.2 0.2 0.4  0.3 0.3 0.4  0.3 0.2 0.4  0.4 0.3 0.4  0.4 0.2 0.4  0.5 0.3 0.4  0.5 0.2 0.4  0.6 0.3 0.4  0.6 0.2 0.4  0.7 0.3 0.4  0.7 0.2 0.4  0.8 0.3 0.4  0.8 0.2 0.4  0.9 0.3 0.4  0.9 0.2 0.4  1 0.3 0.4  1 0.2 0.4  0.1 0.4 0.4  0 0.4 0.4  0.2 0.4 0.4  0.3 0.4 0.4  0.4 0.4 0.4  0.5 0.4 0.4  0.6 0.4 0.4  0.7 0.4 0.4  0.8 0.4 0.4  0.9 0.4 0.4  1 0.4 0.4  0.1 0.5 0.4  0 0.5 0.4  0.2 0.5 0.4  0.3 0.5 0.4  0.4 0.5 0.4  0.5 0.5 0.4  0.6 0.5 0.4  0.7 0.5 0.4  0.8 0.5 0.4  0.9 0.5 0.4  1 0.5 0.4  0.1 0.6 0.4  0 0.6 0.4  0.2 0.6 0.4  0.3 0.6 0.4  0.4 0.6 0.4  0.5 0.6 0.4  0.6 0.6 0.4  0.7 0.6 0.4  0.8 0.6 0.4  0.9 0.6 0.4  1 0.6 0.4  0.1 0.7 0.4  0 0.7 0.4  0.2 0.7 0.4  0.3 0.7 0.4  0.4 0.7 0.4  0.5 0.7 0.4  0.6 0.7 0.4  0.7 0.7 0.4  0.8 0.7 0.4  0.9 0.7 0.4  1 0.7 0.4  0.1 0.8 0.4  0 0.8 0.4  0.2 0.8 0.4  0.3 0.8 0.4  0.4 0.8 0.4  0.5 0.8 0.4  0.6 0.8 0.4  0.7 0.8 0.4  0.8 0.8 0.4  0.9 0.8 0.4  1 0.8 0.4  0.1 0.3 0.5  0.1 0.2 0.5  0 0.2 0.5  0 0.3 0.5  0.2 0.3 0.5  0.2 0.2 0.5  0.3 0.3 0.5  0.3 0.2 0.5  0.4 0.3 0.5  0.4 0.2 0.5  0.5 0.3 0.5  0.5 0.2 0.5  0.6 0.3 0.5  0.6 0.2 0.5  0.7 0.3 0.5  0.7 0.2 0.5  0.8 0.3 0.5  0.8 0.2 0.5  0.9 0.3 0.5  0.9 0.2 0.5  1 0.3 0.5  1 0.2 0.5  0.1 0.4 0.5  0 0.4 0.5  0.2 0.4 0.5  0.3 0.4 0.5  0.4 0.4 0.5  0.5 0.4 0.5  0.6 0.4 0.5  0.7 0.4 0.5  0.8 0.4 0.5  0.9 0.4 0.5  1 0.4 0.5  0.1 0.5 0.5  0 0.5 0.5  0.2 0.5 0.5  0.3 0.5 0.5  0.4 0.5 0.5  0.5 0.5 0.5  0.6 0.5 0.5  0.7 0.5 0.5  0.8 0.5 0.5  0.9 0.5 0.5  1 0.5 0.5  0.1 0.6 0.5  0 0.6 0.5  0.2 0.6 0.5  0.3 0.6 0.5  0.4 0.6 0.5  0.5 0.6 0.5  0.6 0.6 0.5  0.7 0.6 0.5  0.8 0.6 0.5  0.9 0.6 0.5  1 0.6 0.5  0.1 0.7 0.5  0 0.7 0.5  0.2 0.7 0.5  0.3 0.7 0.5  0.4 0.7 0.5  0.5 0.7 0.5  0.6 0.7 0.5  0.7 0.7 0.5  0.8 0.7 0.5  0.9 0.7 0.5  1 0.7 0.5  0.1 0.8 0.5  0 0.8 0.5  0.2 0.8 0.5  0.3 0.8 0.5  0.4 0.8 0.5  0.5 0.8 0.5  0.6 0.8 0.5  0.7 0.8 0.5  0.8 0.8 0.5  0.9 0.8 0.5  1 0.8 0.5  0.1 0.3 0.6  0.1 0.2 0.6  0 0.2 0.6  0 0.3 0.6  0.2 0.3 0.6  0.2 0.2 0.6  0.3 0.3 0.6  0.3 0.2 0.6  0.4 0.3 0.6  0.4 0.2 0.6  0.5 0.3 0.6  0.5 0.2 0.6  0.6 0.3 0.6  0.6 0.2 0.6  0.7 0.3 0.6  0.7 0.2 0.6  0.8 0.3 0.6  0.8 0.2 0.6  0.9 0.3 0.6  0.9 0.2 0.6  1 0.3 0.6  1 0.2 0.6  0.1 0.4 0.6  0 0.4 0.6  0.2 0.4 0.6  0.3 0.4 0.6  0.4 0.4 0.6  0.5 0.4 0.6  0.6 0.4 0.6  0.7 0.4 0.6  0.8 0.4 0.6  0.9 0.4 0.6  1 0.4 0.6  0.1 0.5 0.6  0 0.5 0.6  0.2 0.5 0.6  0.3 0.5 0.6  0.4 0.5 0.6  0.5 0.5 0.6  0.6 0.5 0.6  0.7 0.5 0.6  0.8 0.5 0.6  0.9 0.5 0.6  1 0.5 0.6  0.1 0.6 0.6  0 0.6 0.6  0.2 0.6 0.6  0.3 0.6 0.6  0.4 0.6 0.6  0.5 0.6 0.6  0.6 0.6 0.6  0.7 0.6 0.6  0.8 0.6 0.6  0.9 0.6 0.6  1 0.6 0.6  0.1 0.7 0.6  0 0.7 0.6  0.2 0.7 0.6  0.3 0.7 0.6  0.4 0.7 0.6  0.5 0.7 0.6  0.6 0.7 0.6  0.7 0.7 0.6  0.8 0.7 0.6  0.9 0.7 0.6  1 0.7 0.6  0.1 0.8 0.6  0 0.8 0.6  0.2 0.8 0.6  0.3 0.8 0.6  0.4 0.8 0.6  0.5 0.8 0.6  0.6 0.8 0.6  0.7 0.8 0.6  0.8 0.8 0.6  0.9 0.8 0.6  1 0.8 0.6  0.1 0.3 0.7  0.1 0.2 0.7  0 0.2 0.7  0 0.3 0.7  0.2 0.3 0.7  0.2 0.2 0.7  0.3 0.3 0.7  0.3 0.2 0.7  0.4 0.3 0.7  0.4 0.2 0.7  0.5 0.3 0.7  0.5 0.2 0.7  0.6 0.3 0.7  0.6 0.2 0.7  0.7 0.3 0.7  0.7 0.2 0.7  0.8 0.3 0.7  0.8 0.2 0.7  0.9 0.3 0.7  0.9 0.2 0.7  1 0.3 0.7  1 0.2 0.7  0.1 0.4 0.7  0 0.4 0.7  0.2 0.4 0.7  0.3 0.4 0.7  0.4 0.4 0.7  0.5 0.4 0.7  0.6 0.4 0.7  0.7 0.4 0.7  0.8 0.4 0.7  0.9 0.4 0.7  1 0.4 0.7  0.1 0.5 0.7  0 0.5 0.7  0.2 0.5 0.7  0.3 0.5 0.7  0.4 0.5 0.7  0.5 0.5 0.7  0.6 0.5 0.7  0.7 0.5 0.7  0.8 0.5 0.7  0.9 0.5 0.7  1 0.5 0.7  0.1 0.6 0.7  0 0.6 0.7  0.2 0.6 0.7  0.3 0.6 0.7  0.4 0.6 0.7  0.5 0.6 0.7  0.6 0.6 0.7  0.7 0.6 0.7  0.8 0.6 0.7  0.9 0.6 0.7  1 0.6 0.7  0.1 0.7 0.7  0 0.7 0.7  0.2 0.7 0.7  0.3 0.7 0.7  0.4 0.7 0.7  0.5 0.7 0.7  0.6 0.7 0.7  0.7 0.7 0.7  0.8 0.7 0.7  0.9 0.7 0.7  1 0.7 0.7  0.1 0.8 0.7  0 0.8 0.7  0.2 0.8 0.7  0.3 0.8 0.7  0.4 0.8 0.7  0.5 0.8 0.7  0.6 0.8 0.7  0.7 0.8 0.7  0.8 0.8 0.7  0.9 0.8 0.7  1 0.8 0.7  0.1 0.3 0.8  0.1 0.2 0.8  0 0.2 0.8  0 0.3 0.8  0.2 0.3 0.8  0.2 0.2 0.8  0.3 0.3 0.8  0.3 0.2 0.8  0.4 0.3 0.8  0.4 0.2 0.8  0.5 0.3 0.8  0.5 0.2 0.8  0.6 0.3 0.8  0.6 0.2 0.8  0.7 0.3 0.8  0.7 0.2 0.8  0.8 0.3 0.8  0.8 0.2 0.8  0.9 0.3 0.8  0.9 0.2 0.8  1 0.3 0.8  1 0.2 0.8  0.1 0.4 0.8  0 0.4 0.8  0.2 0.4 0.8  0.3 0.4 0.8  0.4 0.4 0.8  0.5 0.4 0.8  0.6 0.4 0.8  0.7 0.4 0.8  0.8 0.4 0.8  0.9 0.4 0.8  1 0.4 0.8  0.1 0.5 0.8  0 0.5 0.8  0.2 0.5 0.8  0.3 0.5 0.8  0.4 0.5 0.8  0.5 0.5 0.8  0.6 0.5 0.8  0.7 0.5 0.8  0.8 0.5 0.8  0.9 0.5 0.8  1 0.5 0.8  0.1 0.6 0.8  0 0.6 0.8  0.2 0.6 0.8  0.3 0.6 0.8  0.4 0.6 0.8  0.5 0.6 0.8  0.6 0.6 0.8  0.7 0.6 0.8  0.8 0.6 0.8  0.9 0.6 0.8  1 0.6 0.8  0.1 0.7 0.8  0 0.7 0.8  0.2 0.7 0.8  0.3 0.7 0.8  0.4 0.7 0.8  0.5 0.7 0.8  0.6 0.7 0.8  0.7 0.7 0.8  0.8 0.7 0.8  0.9 0.7 0.8  1 0.7 0.8  0.1 0.8 0.8  0 0.8 0.8  0.2 0.8 0.8  0.3 0.8 0.8  0.4 0.8 0.8  0.5 0.8 0.8  0.6 0.8 0.8  0.7 0.8 0.8  0.8 0.8 0.8  0.9 0.8 0.8  1 0.8 0.8  </DataArray>
</Points>
<Cells>
[...]
<PointData  Vectors="f_23"> 
<DataArray  type="Float64"  Name="f_23"  NumberOfComponents="3" format="ascii">7.6986250045822592e-04 8.2272136883845920e-05 -1.1524006558794987e-05  7.1176891914386843e-04 1.0906466166381129e-04 -1.4080962532013649e-05  7.5091164795199213e-04 8.0944834338594310e-05 -1.1454218419011860e-05  6.8960021984744185e-02 1.7562956171698744e-04 4.0069101417955201e-04  7.2292169727025722e-04 1.0403010146645417e-04 -6.8314614422995628e-06  7.6704384148110379e-04 7.1792382919979938e-05 -2.3893099132218960e-06  8.0444727391011032e-04 5.9676421648091580e-05 -1.4510698901659814e-05  6.8666949329931087e-02 3.3234528059378226e-04 8.0731565974718122e-04  6.0792444889133776e-04 1.6525415825390465e-04 -1.5301949964605393e-05  6.5189877535257775e-04 1.2916158569186982e-04 -1.3507482112797800e-05  6.8438724602699147e-02 5.7602787654672180e-05 2.4240190067722773e-04  6.3683363657477874e-04 1.6560549098298036e-04 -5.2808306965404704e-06  4.6580914203284639e-04 2.0948027321992930e-04 -1.2052575940699243e-05  5.1606483883052435e-04 1.6597534374078782e-04 -7.0511075092334204e-06  6.8396709289157406e-02 -2.4059536286381335e-05 2.9405736727018884e-04  5.1119096817390901e-04 2.2624494838193772e-04 1.8081231074997888e-06  2.7223935076959129e-04 2.3629116382915333e-04 3.2825731434294874e-06  3.2826355643661556e-04 1.8986437462129669e-04 9.8570440341234907e-06  6.8231641782481270e-02 -1.0977962517158564e-04 4.3356691186692987e-04  3.4090148521540963e-04 2.7768762999191236e-04 2.1176529207144542e-05  7.6131636118942555e-06 2.3450485022639554e-04 4.1700617221827458e-05  6.8461403121555973e-05 1.9356947052596573e-04 4.4663533143136270e-05  6.7950380357285053e-02 -2.1895180852086037e-04 6.1673171445185762e-04  1.0422492809987359e-04 3.0503082227460623e-04 6.5376460935355943e-05  -3.3861157962535927e-04 1.9682413379303553e-04 1.0161025429742178e-04  -2.7521109861889162e-04 1.7063512687586854e-04 9.5173773203362791e-05  6.7613678376274716e-02 -3.2827373917784254e-04 7.6709730556946188e-04  -2.2389802484209183e-04 2.8586668716075339e-04 1.4218054916905257e-04  -7.2697848854945846e-04 1.3152956613157957e-04 1.4038863056259571e-04  -6.7161078711673724e-04 1.2298552959390051e-04 1.2853890011149354e-04  6.7430871217294602e-02 -4.0027604145778791e-04 7.0630752152072568e-04  -6.3205795928852036e-04 2.1095352826255189e-04 2.1636113880974911e-04  -1.0232192981159793e-03 6.1396288075780373e-05 1.0387231703595971e-04  -1.0031097303561172e-03 6.6712456467267801e-05 9.8281283778861808e-05  6.7906950488203971e-02 -4.0070487639911495e-04 1.4777366444810452e-04  -1.0087674557581144e-03 1.0358760340134485e-04 1.7590480335541632e-04  -1.1353435111138414e-03 2.1106162507565524e-05 3.1592827311942069e-05  -1.1453013725268944e-03 2.2895679452514566e-05 4.9261314783258428e-05  6.9460992324326482e-02 -2.3499251181262356e-04 -5.4644826169373628e-04  -1.1886241914172905e-03 4.4445444751445218e-05 5.9899981060899318e-05  -1.1792874372093380e-03 2.9974543809237351e-05 7.2211615882695907e-05  -1.1712000335772940e-03 1.7620576925706922e-05 6.7645135916307486e-05  7.1275578701424355e-02 2.5029746307333236e-04 7.6672636978460801e-04  -1.2292433504080338e-03 2.9580130927577656e-05 8.7843964407832692e-05  7.9439088005633224e-04 5.0838181999112839e-05 -1.0628167716017280e-05  1.1132572458540395e-01 -8.0630992787226850e-05 4.3801828024727355e-04  8.5059901137171060e-04 3.6579474250170862e-05 -1.3105846399932767e-05  1.1074099836388882e-01 3.7230033942703541e-04 9.4310032342727074e-04  6.8507029035256000e-04 8.1764199563458002e-05 -8.6203525834049861e-06  1.1088194895540221e-01 -9.4847899498390331e-05 2.4657162628107963e-04  5.4178736327799629e-04 1.0573383305345628e-04 3.0438132310126773e-06  1.1080819551349563e-01 -1.3396485660436210e-04 2.5566130100552277e-04  3.4167028911641833e-04 1.1966109934204797e-04 2.7133762243135028e-05  1.1068567297338730e-01 -1.9621602494290387e-04 3.2741110055562622e-04  6.5204540063367936e-05 1.1961755254832818e-04 6.7255185918344365e-05  1.1050522107295932e-01 -2.7408715838736546e-04 3.8867535420876432e-04  -2.9607237569590682e-04 1.0435823707018901e-04 1.1648894240305487e-04  1.1037235178780272e-01 -3.2624928291861857e-04 3.5558026170895673e-04  -7.0624624984896422e-04 7.7881715370597349e-05 1.4219882285326733e-04  1.1050931477496846e-01 -2.8609284608732964e-04 9.5509209753409476e-05  -1.0419142675889897e-03 4.7413318496842535e-05 1.0488332771801187e-04  1.1122802334903899e-01 -1.1051802180419249e-04 -4.7929984192026916e-04  -1.1768488143545724e-03 1.7837057598328585e-05 5.4327917444867259e-05  1.1262995526509345e-01 1.7750847081539144e-04 -8.0783000114713756e-04  -1.1951998018106802e-03 1.1711031370287729e-05 7.5579537210048394e-05  1.1446180839385144e-01 1.3365758949715383e-04 7.3720772187898023e-04  8.2020701608752529e-04 2.6199437315766574e-05 -7.8796134539908781e-06  1.2281402205121257e-01 -7.5428352966263974e-05 4.0630922430200762e-04  8.7795318703556033e-04 1.6280189715607827e-05 -9.9658013558136347e-06  1.2225819818585663e-01 2.5777528222052372e-04 9.4383645178873347e-04  7.0515221639023073e-04 4.3553867483350732e-05 -4.8662189624295525e-06  1.2240894351767255e-01 -1.3158614525292351e-04 2.0640728403238179e-04  5.5483277740119713e-04 5.6424647099295847e-05 8.7270623868960113e-06  1.2232161757970003e-01 -1.4391773200906342e-04 2.0559522290866669e-04  3.4437662463764518e-04 6.1145310183182387e-05 3.5003790103519113e-05  1.2218190155186305e-01 -1.6565322687694283e-04 2.5357545282758426e-04  5.7067591970002654e-05 5.5151134920042370e-05 7.5639853966250130e-05  1.2201918479207330e-01 -1.9234246117724881e-04 2.7491035009953357e-04  -3.1151782898220713e-04 4.1046206404378797e-05 1.2218593379429883e-04  1.2196932275533307e-01 -1.8917903350296764e-04 1.9206139155784403e-04  -7.2417257779256458e-04 2.7924357199594504e-05 1.4440490235605199e-04  1.2226358209081198e-01 -1.0196492012356502e-04 -1.0149678283452709e-04  -1.0603368437192974e-03 2.2447495761250310e-05 1.0602449430530859e-04  1.2312071334704697e-01 9.6039804171646598e-05 -6.1761148295153814e-04  -1.1951576289933792e-03 8.5114729997578172e-06 5.5427326023046840e-05  1.2443730450724559e-01 3.1685626989632666e-04 -7.3731280891277536e-04  -1.2143164474095996e-03 1.3151597769285802e-05 7.6773242095355839e-05  1.2615581636070627e-01 1.8112275984176333e-04 6.1916803981231742e-04  8.3432186651511374e-04 9.1413264645783332e-06 -4.5034644158694450e-06  1.1133955172428885e-01 -9.1192885952139834e-05 3.5258369116955877e-04  8.9020261772222004e-04 -7.2084938150250211e-07 -5.4119396614758186e-06  1.1088829955486440e-01 1.3320339657132692e-04 8.7903895794525931e-04  7.1853988535269429e-04 1.7911283099955423e-05 -2.2061090025628015e-06  1.1095886467375944e-01 -1.2123071902626186e-04 1.8017484009096951e-04  5.6341863335325980e-04 2.6203637428426922e-05 9.7587965209490366e-06  1.1087025878437913e-01 -1.0602390748294477e-04 1.7885025375407343e-04  3.4467324301021686e-04 2.8563268648637354e-05 3.3804862234034697e-05  1.1072583037697460e-01 -9.2348380313036059e-05 2.1842979540143972e-04  4.9793729183418483e-05 2.2248363447759174e-05 6.9967107080117210e-05  1.1056728782874406e-01 -7.8527643538215571e-05 2.2939735707812672e-04  -3.1995052306477991e-04 1.0403737415023386e-05 1.0966849369214689e-04  1.1054175725762330e-01 -4.4961534534246468e-05 1.4238014874538206e-04  -7.2663102675627053e-04 3.4750946032350093e-06 1.2805388485318892e-04  1.1086692841371602e-01 3.4661300743890036e-05 -1.2781928167123694e-04  -1.0600069554092275e-03 1.0583465053750404e-05 9.4264547616426507e-05  1.1169563961694540e-01 1.6619918107493465e-04 -5.4193872503664915e-04  -1.2027285095304874e-03 3.6968484065636991e-06 4.9371877917843747e-05  1.1284318128035724e-01 2.4650032524521658e-04 -5.3728873045245928e-04  -1.2304826475133172e-03 1.9971339643795760e-05 6.7128464471495497e-05  1.1419956637251993e-01 1.4739156105426224e-04 6.1296219224625493e-04  8.4688218687956692e-04 -3.4263471661856022e-06 -2.5411756663842793e-06  6.9773246234885372e-02 -7.8083129101959230e-05 2.7738268164738758e-04  8.9687984746891520e-04 -5.8219729489374114e-06 -7.3773781366689296e-07  6.9973138696111242e-02 2.9813611638659812e-04 7.1482945667769799e-04  7.3802089381585015e-04 2.2163380174334136e-06 -2.9392819725127283e-06  6.9454117288027195e-02 -5.8071606546589098e-05 1.4452294863100620e-04  5.8422797364430037e-04 1.2813450329349883e-05 2.9696611478680973e-06  6.9403968659439833e-02 5.1977603872708778e-06 1.4269778081929931e-04  3.6273201949509580e-04 2.0630765711168903e-05 2.0924976389074279e-05  6.9310383715378260e-02 6.0793367936550692e-05 1.7102383186617191e-04  6.4027815798434437e-05 2.1202651262978433e-05 5.0183962894933028e-05  6.9190925383296201e-02 1.1767292727648020e-04 1.7441503186636724e-04  -3.0791745825662064e-04 1.6101358531147097e-05 8.2645463077036331e-05  6.9150486841003722e-02 1.7905162163518002e-04 1.0045654730908811e-04  -7.1330986408895650e-04 1.2465171628089429e-05 9.8934336143528700e-05  6.9348397498981626e-02 2.4201865663309237e-04 -1.0345664703357255e-04  -1.0482547837272218e-03 1.7373993913114789e-05 7.5402908245881628e-05  6.9917997000216711e-02 2.9951419909711793e-04 -3.7658745810447276e-04  -1.2045870210136598e-03 1.7668933306661638e-05 3.7996589230812546e-05  7.0829100137020512e-02 3.5403343767761585e-04 -3.3007656993527221e-04  -1.2423637415536501e-03 2.6401202072360110e-05 4.7719843988815828e-05  7.1306175477329065e-02 1.1442112630135660e-04 6.6822519392729473e-04  8.8303565758638346e-04 -5.1753772630019573e-06 -5.1839395593585978e-06  8.9756270248112706e-04 -2.4695855850967728e-06 -2.4397577363716373e-06  9.2856284366229667e-04 -1.2814533326652587e-05 6.1702241277404660e-08  9.2782557553701547e-04 -9.1040894519131038e-06 7.6484109907250872e-08  7.8946173777637123e-04 6.5884162627098846e-07 -1.0595346511130523e-05  8.3180404202730916e-04 -3.4723364486782162e-06 -4.7412520668882489e-06  6.5762054954324981e-04 9.9868699634282569e-06 -1.0654716350412137e-05  7.1621947872844592e-04 7.4958099161483623e-06 -2.1596678010218143e-06  4.6626617304775956e-04 1.9758611195044800e-05 -7.6618984475968866e-06  5.5021780538485677e-04 1.8029424268100483e-05 1.0155759810821755e-05  1.9878332185447155e-04 2.3740009022445663e-05 4.4468165018094475e-06  3.1570610902167517e-04 2.2525123112061028e-05 3.5672999731600096e-05  -1.4995949784450633e-04 2.1583730812442307e-05 2.5019285300213120e-05  3.3518739595595392e-07 1.9754492377443089e-05 7.1806684680890553e-05  -5.6057481765491414e-04 1.7784333315046226e-05 4.7007626615079302e-05  -3.9191391420541235e-04 1.4681807980852088e-05 1.0583974559893778e-04  -9.5380792074273486e-04 1.4009923708831140e-05 5.5944389878506024e-05  -8.1056777781038543e-04 1.5803416502958144e-05 1.1334200307601091e-04  -1.1782011300854522e-03 1.4952838664141245e-05 3.8784608830742399e-05  -1.1105174201059029e-03 1.8570395391429562e-05 7.8691463480223679e-05  -1.2357600574266878e-03 2.6858438744126461e-05 2.7722122839825314e-05  -1.2187306014305968e-03 3.2151467556686209e-05 5.2968992311552655e-05  1.1142553734605293e-01 1.6814876659788661e-04 2.1109813901235174e-04  7.2894688103887322e-04 1.0099692479115328e-04 6.8481414099318755e-06  7.7027779885232564e-04 6.7941986258970196e-05 5.8861926362855073e-06  1.1088950782797345e-01 3.3913141641738105e-04 9.0376197733609616e-04  1.1106486103634211e-01 7.1845396317127188e-05 1.6517405329526520e-04  6.5155585234981069e-04 1.7026491366377896e-04 1.7447441402072371e-05  1.1106839559763315e-01 -2.0222059189550719e-05 2.9238221370098312e-04  5.3832230799559988e-04 2.4956215121833434e-04 3.7894125079590870e-05  1.1101385410019021e-01 -1.1825055511883617e-04 5.0980574049654744e-04  3.8217896057426092e-04 3.3913322429177979e-04 7.3286691451502042e-05  1.1082735220330737e-01 -2.6384657988416654e-04 7.9764077437459674e-04  1.5936730394559628e-04 4.2584113129206727e-04 1.3371545137276205e-04  1.1046954267434447e-01 -4.5671508038720542e-04 1.0779353351826775e-03  -1.6684122357390257e-04 4.6592876603601116e-04 2.4040235818424040e-04  1.0998159220895001e-01 -5.8399341212219302e-04 1.0795841849073763e-03  -6.1141692315929677e-04 3.9842816653081262e-04 3.9189263338534978e-04  1.1010560252600669e-01 -6.1873953866417824e-04 3.5436028457810800e-04  -1.0558525905702209e-03 2.2066834181133535e-04 3.9589462942437719e-04  1.1226356380692948e-01 -4.9003724716554814e-04 -9.6780432625465161e-04  -1.3159108079614616e-03 9.0968338384906101e-05 1.0775616040596340e-04  1.1432396787520395e-01 3.3046110795470149e-04 1.4961424070594356e-03  -1.4145820143674510e-03 5.7457668919001118e-05 1.4460961736279264e-04  1.7775267064271216e-01 -1.1520037311357505e-04 2.5274031327787239e-04  1.7746491907255052e-01 4.0208424114828145e-04 1.0614370675882652e-03  1.7747574785239736e-01 -1.0080671212066498e-04 1.9393650485816997e-04  1.7736249445859970e-01 -1.5761994167242215e-04 2.9077981765544695e-04  1.7730554574237084e-01 -2.5846306073823140e-04 4.3283072817007967e-04  1.7720435349723940e-01 -4.0902754640535479e-04 5.4655832143137679e-04  1.7707851984608877e-01 -5.6768413162387916e-04 5.0752483848252492e-04  1.7712410098432613e-01 -5.8493888813244868e-04 7.9270984881166901e-05  1.7789566193192743e-01 -2.7278306681420897e-04 -9.7503656889742145e-04  1.7989140453377436e-01 3.4904706731970857e-04 -1.8854691976275945e-03  1.8209465314924755e-01 1.3804252368740784e-04 7.9715971099771370e-04  1.9649405106931916e-01 -6.6277870879588688e-05 2.3496679092872516e-04  1.9629300035459465e-01 2.9084119603161647e-04 1.0689840717643965e-03  1.9624688416469380e-01 -1.2862165510416386e-04 1.7289318628417469e-04  1.9611037375952783e-01 -1.5288821639849475e-04 2.5049915928697928e-04  1.9602282564348991e-01 -2.0062284255129752e-04 3.5414512750200959e-04  1.9592500398157769e-01 -2.7493877816070668e-04 4.0167409212023123e-04  1.9588471134388488e-01 -3.3123314677837120e-04 2.7847484174238268e-04  1.9617026779418392e-01 -2.5696954959715480e-04 -2.0497982387218791e-04  1.9729308812424115e-01 8.4591005690740770e-05 -1.1965986353925841e-03  1.9932136547016630e-01 6.3386264243365490e-04 -1.8225599923664213e-03  2.0133648884151328e-01 3.3558610664232802e-04 3.9742118229354811e-04  1.7773282190150547e-01 -6.3534046720165380e-05 1.8736077290114423e-04  1.7766765937774395e-01 1.6789952851850728e-04 9.8979448574012152e-04  1.7749240771545038e-01 -1.0855794720298834e-04 1.4447479310426069e-04  1.7735855136909134e-01 -1.0104581438092238e-04 2.1471513439338025e-04  1.7725775487979295e-01 -1.0199560393298846e-04 3.0096800090410392e-04  1.7715008889623107e-01 -1.1684620342816870e-04 3.3127510210333177e-04  1.7712618144869505e-01 -1.1598973872611297e-04 2.0616395770533283e-04  1.7747875575348737e-01 -3.2418812953348858e-05 -2.2440626090438874e-04  1.7862960897033625e-01 2.0753340915790881e-04 -1.0515462078296975e-03  1.8044846041807694e-01 5.0555421222297982e-04 -1.3889989534541796e-03  1.8181123634729432e-01 2.7011463053508222e-04 4.1400660993871940e-04  1.1143258923955975e-01 -2.0204228146758957e-05 8.8671345267328025e-05  1.1204854315226974e-01 3.5262858011645684e-04 7.8343982666190194e-04  1.1122989426307683e-01 -3.4688281775050657e-05 8.0937133307394692e-05  1.1114559871419220e-01 1.7455660636659240e-05 1.4458275079833735e-04  1.1109011481699742e-01 6.8350627116300100e-05 2.1064464048842571e-04  1.1102036571187461e-01 1.1070085055546388e-04 2.3319404918864561e-04  1.1098134693041253e-01 1.5304724759444615e-04 1.3658672561678222e-04  1.1117982653097137e-01 2.1323387488928803e-04 -1.9064276753197296e-04  1.1197434796469365e-01 3.1672394469673104e-04 -7.3963467301345549e-04  1.1339483429348989e-01 4.8180527800784713e-04 -7.9629022989243469e-04  1.1348946480375031e-01 2.2840523405315952e-04 6.9932960681546078e-04  9.0024392709151001e-04 3.8051681685245720e-07 1.3631748919236090e-06  9.2771618377514775e-04 -3.3487764357630354e-06 2.4317536478860552e-06  8.3770997648187579e-04 1.2138270402341732e-06 5.4311797494417665e-06  7.3390720298370006e-04 9.4743653346785616e-06 2.0193644884658587e-05  5.8536085889353078e-04 1.5458728047363824e-05 5.0307469924191775e-05  3.7045277071604742e-04 1.5597984986228160e-05 1.0151090897943092e-04  6.8130797142068730e-05 7.4074234253518238e-06 1.7187243872290650e-04  -3.3554633389345313e-04 -4.4262811016627070e-06 2.4147665853910735e-04  -8.0637300742252178e-04 -8.2781159827757714e-06 2.6449402791538067e-04  -1.1714719151904925e-03 -3.2214497901627101e-06 1.9723567613541670e-04  -1.2957812757832189e-03 1.4625793032860751e-05 1.5023023633822490e-04  1.2300307610385937e-01 1.4984033108543204e-04 1.5943004713956264e-04  7.4395952516182796e-04 9.4301788700691878e-05 1.8093024761594333e-05  7.8179732941278772e-04 6.1961157520747597e-05 1.1180294804970518e-05  1.2249652925272202e-01 3.4426936633618287e-04 7.1372693625764956e-04  1.2272968251814984e-01 4.6845479256537176e-05 7.0232675307065314e-05  6.7890040705713330e-04 1.6450216512237722e-04 4.0808100907411495e-05  1.2281725408669661e-01 -4.2945053701823319e-05 1.6569835000036407e-04  5.8577811703310989e-04 2.5618140872548354e-04 7.7481127494794696e-05  1.2283832309551133e-01 -1.4366928267855561e-04 3.4222104876286324e-04  4.5489624507594846e-04 3.8401913683456233e-04 1.3211769667220791e-04  1.2270738478268500e-01 -3.1702472791781230e-04 6.0549167328392470e-04  2.5948633803620337e-04 5.5816790244433805e-04 2.0636848332998962e-04  1.2227905738166953e-01 -6.5417794476177991e-04 9.5449603963331398e-04  -6.6785782608821313e-05 7.4523064899007104e-04 3.1329369487465128e-04  1.2144972634467735e-01 -1.1376414428757851e-03 1.2070922884858469e-03  -6.0877328449001635e-04 8.1392966378468858e-04 5.1838420060066465e-04  1.2077090785614604e-01 -1.0581358393613378e-03 8.2554127458534508e-04  -1.1532601345148978e-03 5.9597611493503438e-04 8.9241791267018005e-04  1.2341792517727157e-01 -1.0292927009840434e-03 -8.2755700154589907e-04  -1.4794458377868477e-03 2.6426736958719315e-04 3.0991006736356155e-04  1.2718122685178571e-01 -6.1859282836223216e-04 3.3825710004681282e-03  -1.6775090702302220e-03 1.6497040724979748e-04 1.6192516132067496e-04  1.9658585819813845e-01 -1.4119762018757894e-04 2.3167667298017676e-04  1.9636823300505576e-01 4.0895107766922989e-04 8.5705579299674478e-04  1.9638204583972671e-01 -1.2114521000668573e-04 1.1438501474558480e-04  1.9631212911831558e-01 -1.8952098225274248e-04 1.9924905823987725e-04  1.9626907699237631e-01 -3.1644948691375173e-04 3.2642739820396628e-04  1.9613565651493675e-01 -5.3667472729383334e-04 4.2280468973292614e-04  1.9584189036502284e-01 -8.7017342942832289e-04 3.6695999801944945e-04  1.9551853932935337e-01 -1.1379257038682310e-03 -1.0828282792118048e-04  1.9606932389552292e-01 -7.3088897066605021e-04 -1.3190418537553223e-03  1.9867757512126591e-01 6.1473082918729724e-04 -3.5657263163250599e-03  2.0184703777838309e-01 -2.7318300906257884e-04 1.0326155677523731e-03  2.1764795964984943e-01 -7.7811306482650867e-05 2.3185761281850422e-04  2.1751973646164677e-01 3.0025873463868834e-04 8.9076927088661394e-04  2.1746227687568484e-01 -1.3492543798983685e-04 1.1265299900642261e-04  2.1734745286841914e-01 -1.7183948623316099e-04 1.7886525643458703e-04  2.1726525098773014e-01 -2.4438662377177791e-04 2.6485682536694168e-04  2.1712735419591164e-01 -3.6722205451324299e-04 2.7804212698335606e-04  2.1690690879456731e-01 -5.0341941509137323e-04 9.2940614354447646e-05  2.1683095988351417e-01 -4.8258037635885470e-04 -4.9050235718117979e-04  2.1795278059067519e-01 3.1462365915104916e-05 -1.6692811425078244e-03  2.2096133344285340e-01 1.0953056104409094e-03 -3.7135994164427437e-03  2.2369908634311189e-01 3.2908395542635043e-04 -2.5237289345733633e-04  1.9658353295344025e-01 -5.4994696027572338e-05 2.0243087580647511e-04  1.9658726725437342e-01 1.8874803353750738e-04 8.5567972886906496e-04  1.9640036945741413e-01 -1.0446294178919796e-04 9.7160988498690086e-05  1.9628475958240371e-01 -1.0527455241372331e-04 1.5407863950262619e-04  1.9618460563856557e-01 -1.2511930935771762e-04 2.2199712337918695e-04  1.9603473336290139e-01 -1.7021411481497116e-04 2.1723722921090712e-04  