<?xml version="1.0"?>
<VTKFile type="UnstructuredGrid"  version="0.1"  >
<UnstructuredGrid>
<Piece  NumberOfPoints="533" NumberOfCells="2122">
<Points>
<DataArray  type="Float64"  NumberOfComponents="3"  format="ascii">0 0.2 0.2  0.1 0.2 0.2  0.1 0.3 0.2  0.1 0.3 0.3  0.1 0.2 0.3  0 0.2 0.3  0 0.3 0.2  0 0.3 0.3  0.2 0.2 0.2  0.2 0.3 0.2  0.2 0.3 0.3  0.2 0.2 0.3  0.3 0.2 0.2  0.3 0.3 0.2  0.3 0.3 0.3  0.3 0.2 0.3  0.4 0.2 0.2  0.4 0.3 0.2  0.4 0.3 0.3  0.4 0.2 0.3  0.5 0.2 0.2  0.5 0.3 0.2  0.5 0.3 0.3  0.5 0.2 0.3  0.6 0.2 0.2  0.6 0.3 0.2  0.6 0.3 0.3  0.6 0.2 0.3  0.7 0.2 0.2  0.7 0.3 0.2  0.7 0.3 0.3  0.7 0.2 0.3  0.8 0.2 0.2  0.8 0.3 0.2  0.8 0.3 0.3  0.8 0.2 0.3  0.9 0.2 0.2  0.9 0.3 0.2  0.9 0.3 0.3  0.9 0.2 0.3  1 0.2 0.2  1 0.3 0.2  1 0.3 0.3  1 0.2 0.3  0.1 0.4 0.2  0.1 0.4 0.3  0 0.4 0.2  0 0.4 0.3  0.2 0.4 0.2  0.2 0.4 0.3  0.3 0.4 0.2  0.3 0.4 0.3  0.4 0.4 0.2  0.4 0.4 0.3  0.5 0.4 0.2  0.5 0.4 0.3  0.6 0.4 0.2  0.6 0.4 0.3  0.7 0.4 0.2  0.7 0.4 0.3  0.8 0.4 0.2  0.8 0.4 0.3  0.9 0.4 0.2  0.9 0.4 0.3  1 0.4 0.2  1 0.4 0.3  0.1 0.5 0.2  0.1 0.5 0.3  0 0.5 0.2  0 0.5 0.3  0.2 0.5 0.2  0.2 0.5 0.3  0.3 0.5 0.2  0.3 0.5 0.3  0.4 0.5 0.2  0.4 0.5 0.3  0.5 0.5 0.2  0.5 0.5 0.3  0.6 0.5 0.2  0.6 0.5 0.3  0.7 0.5 0.2  0.7 0.5 0.3  0.8 0.5 0.2  0.8 0.5 0.3  0.9 0.5 0.2  0.9 0.5 0.3  1 0.5 0.2  1 0.5 0.3  0.1 0.6 0.2  0.1 0.6 0.3  0 0.6 0.2  0 0.6 0.3  0.2 0.6 0.2  0.2 0.6 0.3  0.3 0.6 0.2  0.3 0.6 0.3  0.4 0.6 0.2  0.4 0.6 0.3  0.5 0.6 0.2  0.5 0.6 0.3  0.6 0.6 0.2  0.6 0.6 0.3  0.7 0.6 0.2  0.7 0.6 0.3  0.8 0.6 0.2  0.8 0.6 0.3  0.9 0.6 0.2  0.9 0.6 0.3  1 0.6 0.2  1 0.6 0.3  0.1 0.7 0.2  0.1 0.7 0.3  0 0.7 0.2  0 0.7 0.3  0.2 0.7 0.2  0.2 0.7 0.3  0.3 0.7 0.2  0.3 0.7 0.3  0.4 0.7 0.2  0.4 0.7 0.3  0.5 0.7 0.2  0.5 0.7 0.3  0.6 0.7 0.2  0.6 0.7 0.3  0.7 0.7 0.2  0.7 0.7 0.3  0.8 0.7 0.2  0.8 0.7 0.3  0.9 0.7 0.2  0.9 0.7 0.3  1 0.7 0.2  1 0.7 0.3  0.1 0.8 0.2  0.1 0.8 0.3  0 0.8 0.2  0 0.8 0.3  0.2 0.8 0.2  0.2 0.8 0.3  0.3 0.8 0.2  0.3 0.8 0.3  0.4 0.8 0.2  0.4 0.8 0.3  0.5 0.8 0.2  0.5 0.8 0.3  0.6 0.8 0.2  0.6 0.8 0.3  0.7 0.8 0.2  0.7 0.8 0.3  0.8 0.8 0.2  0.8 0.8 0.3  0.9 0.8 0.2  0.9 0.8 0.3  1 0.8 0.2  1 0.8 0.3  0.1 0.3 0.4  0.1 0.2 0.4  0 0.2 0.4  0 0.3 0.4  0.2 0.3 0.4  0.2 0.2 0.4  0.3 0.3 0.4  0.3 0.2 0.4  0.4 0.3 0.4  0.4 0.2 0.4  0.5 0.3 0.4  0.5 0.2 0.4  0.6 0.3 0.4  0.6 0.2 0.4  0.7 0.3 0.4  0.7 0.2 0.4  0.8 0.3 0.4  0.8 0.2 0.4  0.9 0.3 0.4  0.9 0.2 0.4  1 0.3 0.4  1 0.2 0.4  0.1 0.4 0.4  0 0.4 0.4  0.2 0.4 0.4  0.3 0.4 0.4  0.4 0.4 0.4  0.5 0.4 0.4  0.6 0.4 0.4  0.7 0.4 0.4  0.8 0.4 0.4  0.9 0.4 0.4  1 0.4 0.4  0.1 0.5 0.4  0 0.5 0.4  0.2 0.5 0.4  0.3 0.5 0.4  0.4 0.5 0.4  0.5 0.5 0.4  0.6 0.5 0.4  0.7 0.5 0.4  0.8 0.5 0.4  0.9 0.5 0.4  1 0.5 0.4  0.1 0.6 0.4  0 0.6 0.4  0.2 0.6 0.4  0.3 0.6 0.4  0.4 0.6 0.4  0.5 0.6 0.4  0.6 0.6 0.4  0.7 0.6 0.4  0.8 0.6 0.4  0.9 0.6 0.4  1 0.6 0.4  0.1 0.7 0.4  0 0.7 0.4  0.2 0.7 0.4  0.3 0.7 0.4  0.4 0.7 0.4  0.5 0.7 0.4  0.6 0.7 0.4  0.7 0.7 0.4  0.8 0.7 0.4  0.9 0.7 0.4  1 0.7 0.4  0.1 0.8 0.4  0 0.8 0.4  0.2 0.8 0.4  0.3 0.8 0.4  0.4 0.8 0.4  0.5 0.8 0.4  0.6 0.8 0.4  0.7 0.8 0.4  0.8 0.8 0.4  0.9 0.8 0.4  1 0.8 0.4  0.1 0.3 0.5  0.1 0.2 0.5  0 0.2 0.5  0 0.3 0.5  0.2 0.3 0.5  0.2 0.2 0.5  0.3 0.3 0.5  0.3 0.2 0.5  0.4 0.3 0.5  0.4 0.2 0.5  0.5 0.3 0.5  0.5 0.2 0.5  0.6 0.3 0.5  0.6 0.2 0.5  0.7 0.3 0.5  0.7 0.2 0.5  0.8 0.3 0.5  0.8 0.2 0.5  0.9 0.3 0.5  0.9 0.2 0.5  1 0.3 0.5  1 0.2 0.5  0.1 0.4 0.5  0 0.4 0.5  0.2 0.4 0.5  0.3 0.4 0.5  0.4 0.4 0.5  0.5 0.4 0.5  0.6 0.4 0.5  0.7 0.4 0.5  0.8 0.4 0.5  0.9 0.4 0.5  1 0.4 0.5  0.1 0.5 0.5  0 0.5 0.5  0.2 0.5 0.5  0.3 0.5 0.5  0.4 0.5 0.5  0.5 0.5 0.5  0.6 0.5 0.5  0.7 0.5 0.5  0.8 0.5 0.5  0.9 0.5 0.5  1 0.5 0.5  0.1 0.6 0.5  0 0.6 0.5  0.2 0.6 0.5  0.3 0.6 0.5  0.4 0.6 0.5  0.5 0.6 0.5  0.6 0.6 0.5  0.7 0.6 0.5  0.8 0.6 0.5  0.9 0.6 0.5  1 0.6 0.5  0.1 0.7 0.5  0 0.7 0.5  0.2 0.7 0.5  0.3 0.7 0.5  0.4 0.7 0.5  0.5 0.7 0.5  0.6 0.7 0.5  0.7 0.7 0.5  0.8 0.7 0.5  0.9 0.7 0.5  1 0.7 0.5  0.1 0.8 0.5  0 0.8 0.5  0.2 0.8 0.5  0.3 0.8 0.5  0.4 0.8 0.5  0.5 0.8 0.5  0.6 0.8 0.5  0.7 0.8 0.5  0.8 0.8 0.5  0.9 0.8 0.5  1 0.8 0.5  0.1 0.3 0.6  0.1 0.2 0.6  0 0.2 0.6  0 0.3 0.6  0.2 0.3 0.6  0.2 0.2 0.6  0.3 0.3 0.6  0.3 0.2 0.6  0.4 0.3 0.6  0.4 0.2 0.6  0.5 0.3 0.6  0.5 0.2 0.6  0.6 0.3 0.6  0.6 0.2 0.6  0.7 0.3 0.6  0.7 0.2 0.6  0.8 0.3 0.6  0.8 0.2 0.6  0.9 0.3 0.6  0.9 0.2 0.6  1 0.3 0.6  1 0.2 0.6  0.1 0.4 0.6  0 0.4 0.6  0.2 0.4 0.6  0.3 0.4 0.6  0.4 0.4 0.6  0.5 0.4 0.6  0.6 0.4 0.6  0.7 0.4 0.6  0.8 0.4 0.6  0.9 0.4 0.6  1 0.4 0.6  0.1 0.5 0.6  0 0.5 0.6  0.2 0.5 0.6  0.3 0.5 0.6  0.4 0.5 0.6  0.5 0.5 0.6  0.6 0.5 0.6  0.7 0.5 0.6  0.8 0.5 0.6  0.9 0.5 0.6  1 0.5 0.6  0.1 0.6 0.6  0 0.6 0.6  0.2 0.6 0.6  0.3 0.6 0.6  0.4 0.6 0.6  0.5 0.6 0.6  0.6 0.6 0.6  0.7 0.6 0.6  0.8 0.6 0.6  0.9 0.6 0.6  1 0.6 0.6  0.1 0.7 0.6  0 0.7 0.6  0.2 0.7 0.6  0.3 0.7 0.6  0.4 0.7 0.6  0.5 0.7 0.6  0.6 0.7 0.6  0.7 0.7 0.6  0.8 0.7 0.6  0.9 0.7 0.6  1 0.7 0.6  0.1 0.8 0.6  0 0.8 0.6  0.2 0.8 0.6  0.3 0.8 0.6  0.4 0.8 0.6  0.5 0.8 0.6  0.6 0.8 0.6  0.7 0.8 0.6  0.8 0.8 0.6  0.9 0.8 0.6  1 0.8 0.6  0.1 0.3 0.7  0.1 0.2 0.7  0 0.2 0.7  0 0.3 0.7  0.2 0.3 0.7  0.2 0.2 0.7  0.3 0.3 0.7  0.3 0.2 0.7  0.4 0.3 0.7  0.4 0.2 0.7  0.5 0.3 0.7  0.5 0.2 0.7  0.6 0.3 0.7  0.6 0.2 0.7  0.7 0.3 0.7  0.7 0.2 0.7  0.8 0.3 0.7  0.8 0.2 0.7  0.9 0.3 0.7  0.9 0.2 0.7  1 0.3 0.7  1 0.2 0.7  0.1 0.4 0.7  0 0.4 0.7  0.2 0.4 0.7  0.3 0.4 0.7  0.4 0.4 0.7  0.5 0.4 0.7  0.6 0.4 0.7  0.7 0.4 0.7  0.8 0.4 0.7  0.9 0.4 0.7  1 0.4 0.7  0.1 0.5 0.7  0 0.5 0.7  0.2 0.5 0.7  0.3 0.5 0.7  0.4 0.5 0.7  0.5 0.5 0.7  0.6 0.5 0.7  0.7 0.5 0.7  0.8 0.5 0.7  0.9 0.5 0.7  1 0.5 0.7  0.1 0.6 0.7  0 0.6 0.7  0.2 0.6 0.7  0.3 0.6 0.7  0.4 0.6 0.7  0.5 0.6 0.7  0.6 0.6 0.7  0.7 0.6 0.7  0.8 0.6 0.7  0.9 0.6 0.7  1 0.6 0.7  0.1 0.7 0.7  0 0.7 0.7  0.2 0.7 0.7  0.3 0.7 0.7  0.4 0.7 0.7  0.5 0.7 0.7  0.6 0.7 0.7  0.7 0.7 0.7  0.8 0.7 0.7  0.9 0.7 0.7  1 0.7 0.7  0.1 0.8 0.7  0 0.8 0.7  0.2 0.8 0.7  0.3 0.8 0.7  0.4 0.8 0.7  0.5 0.8 0.7  0.6 0.8 0.7  0.7 0.8 0.7  0.8 0.8 0.7  0.9 0.8 0.7  1 0.8 0.7  0.1 0.3 0.8  0.1 0.2 0.8  0 0.2 0.8  0 0.3 0.8  0.2 0.3 0.8  0.2 0.2 0.8  0.3 0.3 0.8  0.3 0.2 0.8  0.4 0.3 0.8  0.4 0.2 0.8  0.5 0.3 0.8  0.5 0.2 0.8  0.6 0.3 0.8  0.6 0.2 0.8  0.7 0.3 0.8  0.7 0.2 0.8  0.8 0.3 0.8  0.8 0.2 0.8  0.9 0.3 0.8  0.9 0.2 0.8  1 0.3 0.8  1 0.2 0.8  0.1 0.4 0.8  0 0.4 0.8  0.2 0.4 0.8  0.3 0.4 0.8  0.4 0.4 0.8  0.5 0.4 0.8  0.6 0.4 0.8  0.7 0.4 0.8  0.8 0.4 0.8  0.9 0.4 0.8  1 0.4 0.8  0.1 0.5 0.8  0 0.5 0.8  0.2 0.5 0.8  0.3 0.5 0.8  0.4 0.5 0.8  0.5 0.5 0.8  0.6 0.5 0.8  0.7 0.5 0.8  0.8 0.5 0.8  0.9 0.5 0.8  1 0.5 0.8  0.1 0.6 0.8  0 0.6 0.8  0.2 0.6 0.8  0.3 0.6 0.8  0.4 0.6 0.8  0.5 0.6 0.8  0.6 0.6 0.8  0.7 0.6 0.8  0.8 0.6 0.8  0.9 0.6 0.8  1 0.6 0.8  0.1 0.7 0.8  0 0.7 0.8  0.2 0.7 0.8  0.3 0.7 0.8  0.4 0.7 0.8  0.5 0.7 0.8  0.6 0.7 0.8  0.7 0.7 0.8  0.8 0.7 0.8  0.9 0.7 0.8  1 0.7 0.8  0.1 0.8 0.8  0 0.8 0.8  0.2 0.8 0.8  0.3 0.8 0.8  0.4 0.8 0.8  </DataArray>
</Points>
<Cells>
[...]
<PointData  Vectors="f_23"> 
<DataArray  type="Float64"  Name="f_23"  NumberOfComponents="3" format="ascii">2.9290496232906582e-03 4.6381765907662205e-04 2.9899118494507236e-04  2.8827536379362646e-03 5.7325774714285852e-04 3.7889324897062238e-04  2.9443836509027688e-03 4.1038971941228071e-04 3.5326413077508916e-04  1.5545465994146906e-01 4.3039833097873001e-04 5.5049821110464447e-04  2.9741179918796675e-03 5.5535786861521722e-04 3.5402122622088739e-04  3.0074264227747320e-03 4.8566397057247634e-04 2.3658010291297880e-04  2.9997549940069860e-03 2.7833201611778918e-04 3.2530413370604754e-04  1.5709129598263613e-01 3.0634783991763354e-04 3.4028172573975324e-04  2.8715521925569820e-03 7.1626584919214759e-04 4.7294912351397039e-04  2.9167265845387279e-03 5.5754798835146418e-04 4.6775900960395879e-04  1.5443860572387472e-01 8.3254640088711808e-04 8.8540804693098727e-04  3.0128297569387659e-03 7.4652238518504099e-04 5.1449110374489685e-04  2.5291510167877191e-03 7.5255180008778233e-04 5.5374531527784270e-04  2.6234875830302004e-03 6.0817780039323520e-04 5.3539682437556471e-04  1.5405367912774809e-01 8.2337009027878729e-04 9.1380859938293185e-04  2.7779121980235624e-03 8.0439444315482474e-04 6.8089382651788572e-04  1.7469752187913011e-03 7.1356913646955457e-04 6.6377473289831897e-04  1.9275424631378228e-03 5.9154844734172997e-04 6.0817054452093431e-04  1.5370028062842922e-01 7.1495969584340810e-04 8.5185656580271947e-04  2.1351636140149307e-03 7.6476380526797265e-04 8.9832782858182531e-04  4.3489656788905879e-04 6.2111273331793421e-04 8.0982255265694622e-04  7.1876720098553576e-04 5.2686811852537224e-04 7.0962301696057644e-04  1.5342684246510777e-01 6.3095340767911504e-04 7.7741280607137274e-04  9.2964479142828454e-04 6.5612660440770535e-04 1.1853052149642608e-03  -1.3444774978654435e-03 4.9145029352998585e-04 9.1477463451367319e-04  -9.7995758297678582e-04 4.2587070971359157e-04 7.8952741805276064e-04  1.5316401133939730e-01 6.0203335109128005e-04 6.9485674120003927e-04  -8.7489723301006710e-04 5.0369332578524171e-04 1.4564381332109978e-03  -3.2780356327630016e-03 3.3094381653206168e-04 8.1490775122563977e-04  -2.9055408082433462e-03 2.9547773270404852e-04 7.1781218211517837e-04  1.5282670228286219e-01 5.4986032652469075e-04 5.9559861972782150e-04  -3.0117274703509059e-03 3.4165088503306608e-04 1.4629242926539863e-03  -4.8555442946964008e-03 1.3473963360583171e-04 4.6772986113433859e-04  -4.5652848718730748e-03 1.4608022097135432e-04 4.3128631643410132e-04  1.5242886955051213e-01 3.6682969651642125e-04 6.1000715825186764e-04  -4.8925964360997986e-03 1.6701292053240680e-04 9.7198845367603122e-04  -5.7160902973803253e-03 6.2442106590366344e-05 1.6019983696705719e-04  -5.6021947557248529e-03 4.4300991057784449e-05 1.9234461893137452e-04  1.5209891617969085e-01 6.6693075534717146e-05 8.1683648250933656e-04  -5.9542493047939505e-03 1.0440987945555793e-04 3.8307087369334711e-04  -6.1850074428144285e-03 1.1051492941989340e-04 3.0289633271787905e-04  -6.0249538768057907e-03 5.4284575133511478e-05 2.0637645812418163e-04  1.5182451191470889e-01 1.4363684702333108e-04 7.7195519403638207e-04  -6.3749827301849155e-03 3.3811669188364781e-05 4.7751399323977287e-04  3.1374704579232690e-03 2.4588069059038872e-04 3.5987196571405283e-04  1.9792418420145697e-01 2.1600523486234741e-04 5.5026013678126731e-04  3.2192065344585643e-03 1.7341252559558410e-04 3.3122765912029450e-04  1.9979898577622018e-01 1.0950718500607531e-03 1.7867860281085222e-04  3.0118687497814999e-03 3.5713352396060709e-04 4.8888442192835627e-04  1.9676256912879889e-01 5.3981580635201437e-04 1.1707981271538068e-03  2.6458642568366357e-03 4.0427545109205867e-04 5.6320972751632871e-04  1.9638109348166036e-01 5.5259068912282396e-04 1.1664354368691886e-03  1.9066532942221234e-03 3.9460780341409263e-04 6.3746575077361237e-04  1.9618973116763783e-01 4.4086405494101854e-04 9.7928501614888462e-04  6.7311391027016375e-04 3.4958514260976544e-04 7.3110013335721420e-04  1.9621611204061398e-01 3.8830066601796610e-04 8.1730141174061121e-04  -1.0451934344318094e-03 2.8460844193520100e-04 7.9016606804349187e-04  1.9634647257141649e-01 4.2695489243442855e-04 7.2174541654697788e-04  -2.9957922330709607e-03 2.0453310989356017e-04 7.0108612804041244e-04  1.9642651447340642e-01 4.3248869568312902e-04 6.5874792993998060e-04  -4.6678549596330483e-03 1.0527967358863410e-04 4.1177482750067931e-04  1.9646950850194883e-01 2.1279010469394294e-04 6.7034509624211576e-04  -5.6793142298476882e-03 2.7108569122410259e-05 1.7193741206570102e-04  1.9666642896331760e-01 -3.1233065122232545e-04 7.7418986128614798e-04  -6.0277688005503345e-03 2.3133563118672437e-05 1.6039938982512829e-04  1.9631434035134254e-01 2.1258849032811483e-04 5.5348570800201090e-04  3.2688843819882463e-03 1.8293394768203040e-04 3.2500093815326356e-04  2.0680361746869239e-01 1.7317975722999984e-04 9.1984874352143650e-04  3.3667166913616637e-03 1.3289382017150499e-04 2.7823758049201917e-04  2.0876175971670025e-01 9.6840879336758737e-04 4.9906726226294363e-04  3.0876285295609123e-03 2.7876353740377639e-04 4.6089908104156448e-04  2.0554436581582453e-01 2.1697280476006700e-04 1.7144741508412981e-03  2.6611411884669440e-03 3.1686564513979125e-04 5.6019552451870634e-04  2.0518742386351543e-01 1.2054342733586877e-04 1.6682957890451450e-03  1.8804039893596260e-03 3.0196895338561634e-04 6.5887786158879867e-04  2.0506416633179128e-01 -4.6560120217114558e-05 1.2516742319351683e-03  6.2932289257629540e-04 2.5960742211051112e-04 7.6900996104547407e-04  2.0526295547983645e-01 -1.1675049465136507e-04 9.2408020464134063e-04  -1.0945667442366345e-03 2.1516942390690361e-04 8.2671258423786399e-04  2.0558937894340074e-01 -5.8624976417526280e-05 7.8863623868554908e-04  -3.0580146020980064e-03 1.7761951359662311e-04 7.3019772566379232e-04  2.0579321245300811e-01 5.3786437290671919e-06 7.6058107712468151e-04  -4.7447478388670640e-03 1.2588296408810504e-04 4.2930246892215030e-04  2.0588250864256122e-01 -1.4245428076062436e-04 7.5835495632391062e-04  -5.7415993616160930e-03 3.7412659857911862e-05 1.7130203369265061e-04  2.0616971422755517e-01 -6.8353439535511894e-04 7.0711778793888422e-04  -6.0777599401655889e-03 3.1423938611825613e-05 1.6395609089709615e-04  2.0599735913171618e-01 -5.9259299690442353e-05 6.1516613113908017e-04  3.3790743545133112e-03 1.6195252929029468e-04 2.8701004644493815e-04  1.9768888675034876e-01 -2.8956386836126316e-04 1.2535480427333188e-03  3.4865878607430604e-03 9.8192977510356999e-05 2.3119042215734439e-04  1.9955026285514568e-01 1.6154133865553836e-04 9.3674254134630184e-04  3.1568702308923408e-03 2.6496952906610803e-04 4.3149448090869642e-04  1.9628861243115742e-01 -2.7771057906257168e-04 2.1465025227057019e-03  2.6817974141726936e-03 3.1054597057556693e-04 5.5509996077864607e-04  1.9586226230375356e-01 -4.1614624840230718e-04 2.0202601316093812e-03  1.8642979483340315e-03 2.9733515141307400e-04 6.7783219561266708e-04  1.9569654166586803e-01 -5.7030116279468230e-04 1.3861543054344665e-03  6.0484109195833207e-04 2.5081162748780183e-04 8.0918813839655297e-04  1.9590718896916240e-01 -6.1042231432379768e-04 9.1386660062561245e-04  -1.1086849679001732e-03 2.0727975916814967e-04 8.7756048151617914e-04  1.9621552899268646e-01 -5.3597315474570553e-04 7.4520166476249171e-04  -3.0738703459521010e-03 1.8789210896730623e-04 7.8719597900063433e-04  1.9630198513525765e-01 -4.2839848839746513e-04 7.3175311891213234e-04  -4.7954964282809244e-03 1.7108283875549057e-04 4.8375700609085381e-04  1.9618160465244425e-01 -4.6410062511440426e-04 7.1751850831891137e-04  -5.8063800590615333e-03 6.5101105368091638e-05 1.9657243502676692e-04  1.9636685440231827e-01 -1.0236285806380695e-03 5.2414554033520361e-04  -6.1739482783530692e-03 6.7063552388957646e-05 1.9465142739149904e-04  1.9647758324725939e-01 -4.3748408219417511e-04 5.3780367751435430e-04  3.5195588487642753e-03 1.2072823643388645e-04 2.7474212205287168e-04  1.5507236849642167e-01 -7.7936713115478473e-04 1.1134784680702883e-03  3.6137872484733602e-03 6.5121167334251167e-05 2.1618762229380940e-04  1.5682907553543088e-01 -4.6723710256195265e-04 1.1064563678539504e-03  3.2704011518984505e-03 2.4463894723930374e-04 4.2861588837745296e-04  1.5356167951404159e-01 -5.6096021230595363e-04 1.7473771070345948e-03  2.7523225840579411e-03 3.2213792934088160e-04 5.6726639889139656e-04  1.5315200366558215e-01 -5.6727864314702874e-04 1.5946708511849986e-03  1.9082907759662188e-03 3.3763368788704843e-04 6.9318072864549263e-04  1.5291189300910391e-01 -6.0171407768098680e-04 1.0603595388461698e-03  6.5610382160206156e-04 3.0556193982626118e-04 8.2913196896598404e-04  1.5291293020291710e-01 -5.8233762549623645e-04 6.8163162478718079e-04  -1.0286785182054921e-03 2.6164161410761292e-04 9.0863758275446925e-04  1.5284184866163067e-01 -5.1968198365980956e-04 5.8586170766951567e-04  -2.9958658119931068e-03 2.3378727167904688e-04 8.4386522412013907e-04  1.5238543105283234e-01 -4.4123542357809968e-04 6.2709491520989531e-04  -4.8080518551359237e-03 2.1433400953292482e-04 5.7225811725792773e-04  1.5152971212165017e-01 -3.8034402425179834e-04 6.0045435972166429e-04  -5.8674878757568015e-03 1.3805483103197067e-04 2.4017338254594421e-04  1.5123491557108409e-01 -6.5741060749674278e-04 2.8861061658856939e-04  -6.2815182175364635e-03 8.8115389503076703e-05 2.5589945929897805e-04  1.5189516435805289e-01 -8.2923834393507448e-04 3.3675737290762045e-04  3.5361269673266607e-03 1.0465293634320456e-04 2.8945303963520317e-04  3.5586871079764009e-03 7.6408715425949512e-05 2.0843702691749125e-04  3.4777477644177663e-03 9.8663494072115157e-05 1.6219567121609227e-04  3.5883574311627716e-03 6.0960146726888763e-05 1.4166382610479109e-04  3.4414937623862977e-03 2.5710581999480501e-04 4.4186152172207108e-04  3.3919328804500916e-03 1.5414441621820155e-04 4.0061478180177386e-04  3.0407563178553691e-03 3.6372794421768017e-04 5.7693427109376720e-04  3.1458401338374195e-03 2.5113614809078009e-04 5.3587987453540629e-04  2.3438771908228830e-03 4.0211880296791262e-04 6.6969132643471079e-04  2.6195329848883626e-03 2.9738084150794013e-04 6.6453156282303720e-04  1.2661989599036881e-03 3.7836829977161256e-04 7.4787181627488915e-04  1.7324025129916239e-03 2.8711958980240322e-04 8.0590430056491581e-04  -2.5140538357597313e-04 3.2906054057065616e-04 7.8386885286200537e-04  4.0982014066368808e-04 2.5440558511340784e-04 9.2242910504380775e-04  -2.1495431550413056e-03 2.8626720920423530e-04 7.4266379062532428e-04  -1.3721930606910668e-03 2.2816144777059680e-04 9.6520063766058453e-04  -4.1169334172289091e-03 2.4262621546412494e-04 5.7520199751666607e-04  -3.3829631636719819e-03 2.1067710826004610e-04 8.4063363534020647e-04  -5.6670031295000759e-03 2.0726377325910248e-04 2.8929389357799581e-04  -5.0961350241335492e-03 1.6309375598857318e-04 5.0752921329547899e-04  -6.3508318578916166e-03 9.3586907594566011e-05 3.1570052453335569e-04  -5.8786167836382226e-03 1.4750960389931214e-04 3.2704902481946782e-04  1.9796838379900264e-01 3.0070111543487065e-04 4.8012761829701727e-04  3.2137346713122595e-03 5.4829259715896911e-04 3.5370697571401080e-04  3.2522977415922636e-03 4.8027689350460881e-04 2.4384118563303782e-04  1.9985008688511169e-01 -2.9613979501449621e-05 1.1385448865583059e-03  1.9682475651036377e-01 1.0266418920743846e-03 7.0991085647094919e-04  3.2411188738719408e-03 7.5085764353058295e-04 5.8637509810437291e-04  1.9647519903683688e-01 1.0023795992379061e-03 7.4586638670319581e-04  3.0446171927002931e-03 8.1107000670109942e-04 8.5818008566733819e-04  1.9628929252566626e-01 8.0356809337396356e-04 6.5907127700651712e-04  2.4862418162232029e-03 7.6199812166780566e-04 1.2190858474920036e-03  1.9632646374781010e-01 7.0985657313975183e-04 5.4624119062706409e-04  1.3321835545753180e-03 6.1690722353730106e-04 1.7225310686155089e-03  1.9653739284806693e-01 8.0392146819563946e-04 3.6079866207789409e-04  -6.0645336593036355e-04 3.9400331650591498e-04 2.3258950097882107e-03  1.9688043760063478e-01 9.5558524187106149e-04 4.0473084196751374e-05  -3.1842281695249053e-03 1.9516659310471880e-04 2.6807018622257901e-03  1.9737536367292705e-01 8.8006363027721306e-04 -5.0910761236220603e-05  -5.5901461385638434e-03 9.3105610859229191e-05 2.0266656230455830e-03  1.9798771741308374e-01 4.5076018237912008e-04 3.8550278610496571e-04  -6.9520196135049546e-03 5.6321340648244345e-05 8.7503513438884546e-04  1.9912093338583256e-01 -1.1301704264160487e-04 -7.8106597663867342e-04  -7.3830869689328719e-03 5.8546969870182995e-06 9.4697594049799856e-04  2.6168299248805632e-01 1.8097302809562995e-04 5.8262048959177950e-04  2.6266373369095775e-01 1.3107999201384930e-03 1.5398550043726575e-03  2.6054410461113775e-01 9.0618557993816086e-04 1.1309063613781116e-03  2.6013749232327721e-01 9.2286774559469705e-04 1.1098285577959639e-03  2.6024104837864109e-01 6.5848460511715873e-04 7.8667295919580772e-04  2.6086168734668513e-01 5.9379928979283393e-04 5.2614078063029405e-04  2.6186144563723579e-01 8.2221614044261974e-04 3.3694228617802221e-04  2.6306740862640787e-01 1.1057928109668772e-03 9.5431944298888908e-05  2.6444652263297558e-01 9.9466219982178748e-04 1.0916384096445276e-04  2.6607719592034623e-01 7.5988867387742704e-05 5.7281471699871804e-04  2.6721094229791109e-01 4.4997352099523507e-04 -4.4739778990949256e-04  2.7586085224509649e-01 3.2330753192312398e-04 1.2137265590372074e-03  2.7641407337455964e-01 1.3523068082279019e-03 2.4830493475265546e-03  2.7476382673997535e-01 5.4096704390464538e-04 2.0571857828933777e-03  2.7429730292302618e-01 3.6078554957763879e-04 1.9696875954368261e-03  2.7446828061025086e-01 -2.3455246757633961e-05 1.1564583652036581e-03  2.7544993826558817e-01 -1.4746180318531959e-04 6.5278926942870913e-04  2.7689433245945172e-01 8.0066397041163228e-05 5.1365316005460963e-04  2.7842425726216580e-01 3.8046344516398482e-04 4.7481733518008236e-04  2.7992883483727121e-01 3.1033109173409906e-04 6.6880484944074881e-04  2.8158917953952084e-01 -6.3008608312644331e-04 9.6605475091512245e-04  2.8289153238101977e-01 -3.2287372920267974e-05 2.9728178488975745e-04  2.6154933583321821e-01 -2.2771451149675476e-04 2.0711579874554600e-03  2.6175410850811925e-01 3.6535194809091706e-04 3.4643655731902362e-03  2.6032841550501240e-01 -1.6548031521452082e-04 2.9857238204175230e-03  2.5960645877806615e-01 -4.9088826739149369e-04 2.7268076728512950e-03  2.5963859834469655e-01 -8.5186747347600804e-04 1.2986258782200508e-03  2.6067872509071388e-01 -9.3832758743718199e-04 5.8554420196322622e-04  2.6211920859229010e-01 -7.5840361707827080e-04 5.2738228891678976e-04  2.6344335527884505e-01 -5.2737362843663252e-04 6.5523518823289292e-04  2.6451685819823106e-01 -5.4186480582949891e-04 8.3666385718163174e-04  2.6574029401980359e-01 -1.4527759011808891e-03 9.5140431977280870e-04  2.6714684656136722e-01 -7.9416372817287613e-04 6.0048105068727863e-04  1.9813774581953761e-01 -8.2603992725246284e-04 1.6027582763316181e-03  1.9827223913736453e-01 -4.0084359204501768e-04 3.4970113546142975e-03  1.9673306008128794e-01 -6.8079533488119102e-04 2.3327346170634975e-03  1.9590900254797589e-01 -9.4665608774658727e-04 1.9824826153902347e-03  1.9572536178835112e-01 -1.1642663222095678e-03 5.6346962158064279e-04  1.9639513118467786e-01 -1.0832256242416193e-03 8.4167832482666771e-06  1.9716157716836277e-01 -8.8982135112908886e-04 1.7878316375064468e-04  1.9748896924078593e-01 -7.3535778465196456e-04 5.1237523935164758e-04  1.9724233629214111e-01 -6.5482261784122198e-04 7.2543386755603877e-04  1.9738729324404389e-01 -1.0931977373855532e-03 6.2385182824472240e-04  1.9909564888990980e-01 -1.2966851868889140e-03 5.2339480331155025e-04  3.7049089891712799e-03 7.4471332953378217e-06 3.0346225959804497e-05  3.7625155854561308e-03 -7.0074009963424358e-06 5.4544290766252348e-05  3.5118999964523371e-03 4.6422633419596109e-05 1.9251351638290481e-04  3.2513491516187151e-03 1.2236008739007943e-04 3.1889536310107788e-04  2.7888773238633558e-03 1.8941674621777188e-04 4.8388846584257586e-04  1.9965715274537416e-03 2.1102911291102604e-04 7.6559122444457548e-04  7.1348579478783074e-04 2.1239094274873703e-04 1.0862934599005175e-03  -1.1943414871486032e-03 2.0731468041381909e-04 1.3710101657233667e-03  -3.4750206685245709e-03 2.0277902356069039e-04 1.3967338361664547e-03  -5.4822145837521577e-03 1.7548624599948294e-04 9.9892641484408727e-04  -6.2784359384108869e-03 2.1248465420795748e-04 7.2086712431860753e-04  2.0695150393066855e-01 6.7268340974887761e-04 4.8158473051217285e-04  3.4638588391264790e-03 4.8493291189287261e-04 3.4653466889450160e-04  3.4947802350651308e-03 4.0358526784224934e-04 2.4841342531954175e-04  2.0891837863232793e-01 2.7640931156541006e-04 1.0789119940641122e-03  2.0572724169340240e-01 1.5933029215526016e-03 4.6766393931595260e-04  3.5073040285353825e-03 6.8106103902407841e-04 5.9725630237038427e-04  2.0542625295733072e-01 1.5566506756616045e-03 4.0881578869736689e-04  3.3799386228859562e-03 7.5633631027117597e-04 8.7503094958496638e-04  2.0530727634217302e-01 1.1796633897026457e-03 3.0097332635977450e-04  2.9694068706922969e-03 7.1962191397829673e-04 1.2470312760753065e-03  2.0550536935807423e-01 1.0278848898343624e-03 2.0302636825025240e-04  2.0075609951862622e-03 5.5739507975030361e-04 1.8236885508731730e-03  2.0598176478241095e-01 1.3076047633128534e-03 -6.1062140179396864e-05  7.8097407165788398e-05 2.3546842021736480e-04 2.7076517579441533e-03  2.0677582093529109e-01 1.9249742029708713e-03 -8.8945659371950352e-04  -3.1282381509071971e-03 -1.3463634322923487e-04 3.7512593743736669e-03  2.0786451683977944e-01 2.4282464906804561e-03 -2.2263977057152343e-03  -6.5959362733069779e-03 -1.2762791886791671e-04 3.8528913145355168e-03  2.0934466275453520e-01 2.2005501926671998e-03 -2.5698171679683431e-03  -8.7147509991552918e-03 -4.2614690179388801e-05 1.4853173786695745e-03  2.1199708188167377e-01 1.7788397810428133e-03 -6.2291550026461690e-03  -9.5943160715538465e-03 -9.6906363213057755e-06 1.9453718580937644e-03  2.7597423443507063e-01 8.0696613045958725e-04 7.3765084006401690e-04  2.7652014202049979e-01 2.2321510393171111e-03 1.6097112716192583e-03  2.7490073653650576e-01 1.8622588735039964e-03 8.0296600502553198e-04  2.7445471532956700e-01 1.8584336891492045e-03 5.8252714106304449e-04  2.7463068443183308e-01 1.1727859797406861e-03 1.7078528691330614e-04  2.7563981510584118e-01 9.8736227660230127e-04 -9.3068700891497846e-05  2.7727482641099560e-01 1.4978783117365270e-03 -3.2643696693111720e-04  2.7944340997642625e-01 2.3893088720460679e-03 -1.0451993632628078e-03  2.8210135431434674e-01 3.0183169997445147e-03 -2.1935114785166516e-03  2.8576014432165930e-01 2.2208926352170482e-03 -2.2623232115815848e-03  2.8950287350646792e-01 3.0270728678528417e-03 -5.0225894539177229e-03  2.9169675537064493e-01 1.1944948442031329e-03 1.6272340096003333e-03  2.9131955659776115e-01 2.5547573670930421e-03 2.8391381788886211e-03  2.9089947489187734e-01 1.5892033452848341e-03 1.8448015553862488e-03  2.9012132704335591e-01 1.2916011951895441e-03 1.4807686085655321e-03  2.9021320349345830e-01 2.1699826495190445e-04 3.5347791029983257e-04  2.9195640349496960e-01 -1.1742392340201249e-04 -1.3365083450222662e-04  2.9442267851494042e-01 3.7576725588921606e-04 -9.6991805185909396e-05  2.9727299909842936e-01 1.1335866303761283e-03 -3.0481518778206670e-04  3.0038904593857207e-01 1.4874527465241023e-03 -7.5438189090961598e-04  3.0423953992816011e-01 5.3759120013558651e-04 -5.2801991162352148e-04  3.0824071594949531e-01 1.5001440087171693e-03 -2.3329434690783175e-03  2.7598335506578114e-01 2.5109188734738275e-04 2.9690756225283651e-03  2.7470190613007761e-01 1.2112152366893678e-03 4.1174313673214852e-03  2.7503649272654762e-01 4.2801043590389950e-04 3.8424166153476656e-03  2.7384384802962608e-01 -1.7618099362174880e-04 2.5730307847380957e-03  2.7348777748768560e-01 -1.1511882388113930e-03 2.0431899423357323e-04  2.7578461569708557e-01 -1.3474667165170897e-03 -3.4801976695795367e-04  2.7846014984506512e-01 -9.1602773134982654e-04 7.2300725126629297e-05  2.8097968