<?xml version="1.0"?>
<VTKFile type="UnstructuredGrid"  version="0.1"  >
<UnstructuredGrid>
<Piece  NumberOfPoints="539" NumberOfCells="2160">
<Points>
<DataArray  type="Float64"  NumberOfComponents="3"  format="ascii">0 0.2 0.2  0.1 0.2 0.2  0.1 0.3 0.2  0.1 0.3 0.3  0.1 0.2 0.3  0 0.2 0.3  0 0.3 0.2  0 0.3 0.3  0.2 0.2 0.2  0.2 0.3 0.2  0.2 0.3 0.3  0.2 0.2 0.3  0.3 0.2 0.2  0.3 0.3 0.2  0.3 0.3 0.3  0.3 0.2 0.3  0.4 0.2 0.2  0.4 0.3 0.2  0.4 0.3 0.3  0.4 0.2 0.3  0.5 0.2 0.2  0.5 0.3 0.2  0.5 0.3 0.3  0.5 0.2 0.3  0.6 0.2 0.2  0.6 0.3 0.2  0.6 0.3 0.3  0.6 0.2 0.3  0.7 0.2 0.2  0.7 0.3 0.2  0.7 0.3 0.3  0.7 0.2 0.3  0.8 0.2 0.2  0.8 0.3 0.2  0.8 0.3 0.3  0.8 0.2 0.3  0.9 0.2 0.2  0.9 0.3 0.2  0.9 0.3 0.3  0.9 0.2 0.3  1 0.2 0.2  1 0.3 0.2  1 0.3 0.3  1 0.2 0.3  0.1 0.4 0.2  0.1 0.4 0.3  0 0.4 0.2  0 0.4 0.3  0.2 0.4 0.2  0.2 0.4 0.3  0.3 0.4 0.2  0.3 0.4 0.3  0.4 0.4 0.2  0.4 0.4 0.3  0.5 0.4 0.2  0.5 0.4 0.3  0.6 0.4 0.2  0.6 0.4 0.3  0.7 0.4 0.2  0.7 0.4 0.3  0.8 0.4 0.2  0.8 0.4 0.3  0.9 0.4 0.2  0.9 0.4 0.3  1 0.4 0.2  1 0.4 0.3  0.1 0.5 0.2  0.1 0.5 0.3  0 0.5 0.2  0 0.5 0.3  0.2 0.5 0.2  0.2 0.5 0.3  0.3 0.5 0.2  0.3 0.5 0.3  0.4 0.5 0.2  0.4 0.5 0.3  0.5 0.5 0.2  0.5 0.5 0.3  0.6 0.5 0.2  0.6 0.5 0.3  0.7 0.5 0.2  0.7 0.5 0.3  0.8 0.5 0.2  0.8 0.5 0.3  0.9 0.5 0.2  0.9 0.5 0.3  1 0.5 0.2  1 0.5 0.3  0.1 0.6 0.2  0.1 0.6 0.3  0 0.6 0.2  0 0.6 0.3  0.2 0.6 0.2  0.2 0.6 0.3  0.3 0.6 0.2  0.3 0.6 0.3  0.4 0.6 0.2  0.4 0.6 0.3  0.5 0.6 0.2  0.5 0.6 0.3  0.6 0.6 0.2  0.6 0.6 0.3  0.7 0.6 0.2  0.7 0.6 0.3  0.8 0.6 0.2  0.8 0.6 0.3  0.9 0.6 0.2  0.9 0.6 0.3  1 0.6 0.2  1 0.6 0.3  0.1 0.7 0.2  0.1 0.7 0.3  0 0.7 0.2  0 0.7 0.3  0.2 0.7 0.2  0.2 0.7 0.3  0.3 0.7 0.2  0.3 0.7 0.3  0.4 0.7 0.2  0.4 0.7 0.3  0.5 0.7 0.2  0.5 0.7 0.3  0.6 0.7 0.2  0.6 0.7 0.3  0.7 0.7 0.2  0.7 0.7 0.3  0.8 0.7 0.2  0.8 0.7 0.3  0.9 0.7 0.2  0.9 0.7 0.3  1 0.7 0.2  1 0.7 0.3  0.1 0.8 0.2  0.1 0.8 0.3  0 0.8 0.2  0 0.8 0.3  0.2 0.8 0.2  0.2 0.8 0.3  0.3 0.8 0.2  0.3 0.8 0.3  0.4 0.8 0.2  0.4 0.8 0.3  0.5 0.8 0.2  0.5 0.8 0.3  0.6 0.8 0.2  0.6 0.8 0.3  0.7 0.8 0.2  0.7 0.8 0.3  0.8 0.8 0.2  0.8 0.8 0.3  0.9 0.8 0.2  0.9 0.8 0.3  1 0.8 0.2  1 0.8 0.3  0.1 0.3 0.4  0.1 0.2 0.4  0 0.2 0.4  0 0.3 0.4  0.2 0.3 0.4  0.2 0.2 0.4  0.3 0.3 0.4  0.3 0.2 0.4  0.4 0.3 0.4  0.4 0.2 0.4  0.5 0.3 0.4  0.5 0.2 0.4  0.6 0.3 0.4  0.6 0.2 0.4  0.7 0.3 0.4  0.7 0.2 0.4  0.8 0.3 0.4  0.8 0.2 0.4  0.9 0.3 0.4  0.9 0.2 0.4  1 0.3 0.4  1 0.2 0.4  0.1 0.4 0.4  0 0.4 0.4  0.2 0.4 0.4  0.3 0.4 0.4  0.4 0.4 0.4  0.5 0.4 0.4  0.6 0.4 0.4  0.7 0.4 0.4  0.8 0.4 0.4  0.9 0.4 0.4  1 0.4 0.4  0.1 0.5 0.4  0 0.5 0.4  0.2 0.5 0.4  0.3 0.5 0.4  0.4 0.5 0.4  0.5 0.5 0.4  0.6 0.5 0.4  0.7 0.5 0.4  0.8 0.5 0.4  0.9 0.5 0.4  1 0.5 0.4  0.1 0.6 0.4  0 0.6 0.4  0.2 0.6 0.4  0.3 0.6 0.4  0.4 0.6 0.4  0.5 0.6 0.4  0.6 0.6 0.4  0.7 0.6 0.4  0.8 0.6 0.4  0.9 0.6 0.4  1 0.6 0.4  0.1 0.7 0.4  0 0.7 0.4  0.2 0.7 0.4  0.3 0.7 0.4  0.4 0.7 0.4  0.5 0.7 0.4  0.6 0.7 0.4  0.7 0.7 0.4  0.8 0.7 0.4  0.9 0.7 0.4  1 0.7 0.4  0.1 0.8 0.4  0 0.8 0.4  0.2 0.8 0.4  0.3 0.8 0.4  0.4 0.8 0.4  0.5 0.8 0.4  0.6 0.8 0.4  0.7 0.8 0.4  0.8 0.8 0.4  0.9 0.8 0.4  1 0.8 0.4  0.1 0.3 0.5  0.1 0.2 0.5  0 0.2 0.5  0 0.3 0.5  0.2 0.3 0.5  0.2 0.2 0.5  0.3 0.3 0.5  0.3 0.2 0.5  0.4 0.3 0.5  0.4 0.2 0.5  0.5 0.3 0.5  0.5 0.2 0.5  0.6 0.3 0.5  0.6 0.2 0.5  0.7 0.3 0.5  0.7 0.2 0.5  0.8 0.3 0.5  0.8 0.2 0.5  0.9 0.3 0.5  0.9 0.2 0.5  1 0.3 0.5  1 0.2 0.5  0.1 0.4 0.5  0 0.4 0.5  0.2 0.4 0.5  0.3 0.4 0.5  0.4 0.4 0.5  0.5 0.4 0.5  0.6 0.4 0.5  0.7 0.4 0.5  0.8 0.4 0.5  0.9 0.4 0.5  1 0.4 0.5  0.1 0.5 0.5  0 0.5 0.5  0.2 0.5 0.5  0.3 0.5 0.5  0.4 0.5 0.5  0.5 0.5 0.5  0.6 0.5 0.5  0.7 0.5 0.5  0.8 0.5 0.5  0.9 0.5 0.5  1 0.5 0.5  0.1 0.6 0.5  0 0.6 0.5  0.2 0.6 0.5  0.3 0.6 0.5  0.4 0.6 0.5  0.5 0.6 0.5  0.6 0.6 0.5  0.7 0.6 0.5  0.8 0.6 0.5  0.9 0.6 0.5  1 0.6 0.5  0.1 0.7 0.5  0 0.7 0.5  0.2 0.7 0.5  0.3 0.7 0.5  0.4 0.7 0.5  0.5 0.7 0.5  0.6 0.7 0.5  0.7 0.7 0.5  0.8 0.7 0.5  0.9 0.7 0.5  1 0.7 0.5  0.1 0.8 0.5  0 0.8 0.5  0.2 0.8 0.5  0.3 0.8 0.5  0.4 0.8 0.5  0.5 0.8 0.5  0.6 0.8 0.5  0.7 0.8 0.5  0.8 0.8 0.5  0.9 0.8 0.5  1 0.8 0.5  0.1 0.3 0.6  0.1 0.2 0.6  0 0.2 0.6  0 0.3 0.6  0.2 0.3 0.6  0.2 0.2 0.6  0.3 0.3 0.6  0.3 0.2 0.6  0.4 0.3 0.6  0.4 0.2 0.6  0.5 0.3 0.6  0.5 0.2 0.6  0.6 0.3 0.6  0.6 0.2 0.6  0.7 0.3 0.6  0.7 0.2 0.6  0.8 0.3 0.6  0.8 0.2 0.6  0.9 0.3 0.6  0.9 0.2 0.6  1 0.3 0.6  1 0.2 0.6  0.1 0.4 0.6  0 0.4 0.6  0.2 0.4 0.6  0.3 0.4 0.6  0.4 0.4 0.6  0.5 0.4 0.6  0.6 0.4 0.6  0.7 0.4 0.6  0.8 0.4 0.6  0.9 0.4 0.6  1 0.4 0.6  0.1 0.5 0.6  0 0.5 0.6  0.2 0.5 0.6  0.3 0.5 0.6  0.4 0.5 0.6  0.5 0.5 0.6  0.6 0.5 0.6  0.7 0.5 0.6  0.8 0.5 0.6  0.9 0.5 0.6  1 0.5 0.6  0.1 0.6 0.6  0 0.6 0.6  0.2 0.6 0.6  0.3 0.6 0.6  0.4 0.6 0.6  0.5 0.6 0.6  0.6 0.6 0.6  0.7 0.6 0.6  0.8 0.6 0.6  0.9 0.6 0.6  1 0.6 0.6  0.1 0.7 0.6  0 0.7 0.6  0.2 0.7 0.6  0.3 0.7 0.6  0.4 0.7 0.6  0.5 0.7 0.6  0.6 0.7 0.6  0.7 0.7 0.6  0.8 0.7 0.6  0.9 0.7 0.6  1 0.7 0.6  0.1 0.8 0.6  0 0.8 0.6  0.2 0.8 0.6  0.3 0.8 0.6  0.4 0.8 0.6  0.5 0.8 0.6  0.6 0.8 0.6  0.7 0.8 0.6  0.8 0.8 0.6  0.9 0.8 0.6  1 0.8 0.6  0.1 0.3 0.7  0.1 0.2 0.7  0 0.2 0.7  0 0.3 0.7  0.2 0.3 0.7  0.2 0.2 0.7  0.3 0.3 0.7  0.3 0.2 0.7  0.4 0.3 0.7  0.4 0.2 0.7  0.5 0.3 0.7  0.5 0.2 0.7  0.6 0.3 0.7  0.6 0.2 0.7  0.7 0.3 0.7  0.7 0.2 0.7  0.8 0.3 0.7  0.8 0.2 0.7  0.9 0.3 0.7  0.9 0.2 0.7  1 0.3 0.7  1 0.2 0.7  0.1 0.4 0.7  0 0.4 0.7  0.2 0.4 0.7  0.3 0.4 0.7  0.4 0.4 0.7  0.5 0.4 0.7  0.6 0.4 0.7  0.7 0.4 0.7  0.8 0.4 0.7  0.9 0.4 0.7  1 0.4 0.7  0.1 0.5 0.7  0 0.5 0.7  0.2 0.5 0.7  0.3 0.5 0.7  0.4 0.5 0.7  0.5 0.5 0.7  0.6 0.5 0.7  0.7 0.5 0.7  0.8 0.5 0.7  0.9 0.5 0.7  1 0.5 0.7  0.1 0.6 0.7  0 0.6 0.7  0.2 0.6 0.7  0.3 0.6 0.7  0.4 0.6 0.7  0.5 0.6 0.7  0.6 0.6 0.7  0.7 0.6 0.7  0.8 0.6 0.7  0.9 0.6 0.7  1 0.6 0.7  0.1 0.7 0.7  0 0.7 0.7  0.2 0.7 0.7  0.3 0.7 0.7  0.4 0.7 0.7  0.5 0.7 0.7  0.6 0.7 0.7  0.7 0.7 0.7  0.8 0.7 0.7  0.9 0.7 0.7  1 0.7 0.7  0.1 0.8 0.7  0 0.8 0.7  0.2 0.8 0.7  0.3 0.8 0.7  0.4 0.8 0.7  0.5 0.8 0.7  0.6 0.8 0.7  0.7 0.8 0.7  0.8 0.8 0.7  0.9 0.8 0.7  1 0.8 0.7  0.1 0.3 0.8  0.1 0.2 0.8  0 0.2 0.8  0 0.3 0.8  0.2 0.3 0.8  0.2 0.2 0.8  0.3 0.3 0.8  0.3 0.2 0.8  0.4 0.3 0.8  0.4 0.2 0.8  0.5 0.3 0.8  0.5 0.2 0.8  0.6 0.3 0.8  0.6 0.2 0.8  0.7 0.3 0.8  0.7 0.2 0.8  0.8 0.3 0.8  0.8 0.2 0.8  0.9 0.3 0.8  0.9 0.2 0.8  1 0.3 0.8  1 0.2 0.8  0.1 0.4 0.8  0 0.4 0.8  0.2 0.4 0.8  0.3 0.4 0.8  0.4 0.4 0.8  0.5 0.4 0.8  0.6 0.4 0.8  0.7 0.4 0.8  0.8 0.4 0.8  0.9 0.4 0.8  1 0.4 0.8  0.1 0.5 0.8  0 0.5 0.8  0.2 0.5 0.8  0.3 0.5 0.8  0.4 0.5 0.8  0.5 0.5 0.8  0.6 0.5 0.8  0.7 0.5 0.8  0.8 0.5 0.8  0.9 0.5 0.8  1 0.5 0.8  0.1 0.6 0.8  0 0.6 0.8  0.2 0.6 0.8  0.3 0.6 0.8  0.4 0.6 0.8  0.5 0.6 0.8  0.6 0.6 0.8  0.7 0.6 0.8  0.8 0.6 0.8  0.9 0.6 0.8  1 0.6 0.8  0.1 0.7 0.8  0 0.7 0.8  0.2 0.7 0.8  0.3 0.7 0.8  0.4 0.7 0.8  0.5 0.7 0.8  0.6 0.7 0.8  0.7 0.7 0.8  0.8 0.7 0.8  0.9 0.7 0.8  1 0.7 0.8  0.1 0.8 0.8  0 0.8 0.8  0.2 0.8 0.8  0.3 0.8 0.8  0.4 0.8 0.8  0.5 0.8 0.8  0.6 0.8 0.8  0.7 0.8 0.8  0.8 0.8 0.8  0.9 0.8 0.8  1 0.8 0.8  </DataArray>
</Points>
<Cells>
[...]
<PointData  Vectors="f_23"> 
<DataArray  type="Float64"  Name="f_23"  NumberOfComponents="3" format="ascii">-8.3436915967996809e-04 -2.5475709985901357e-04 -1.2844762388323453e-05  -7.2439053269146819e-04 -3.7687073292509227e-04 -1.2539907259876382e-05  -8.3223064356023559e-04 -2.6882892144653749e-04 -2.4309329531767854e-05  7.6912776667119639e-02 -3.4247413255363181e-04 -5.6208079913761064e-04  -7.2963181896766138e-04 -3.5990317672688721e-04 -2.0984368327435688e-05  -8.2911709993022109e-04 -2.4436221050960809e-04 -2.0783728836359362e-05  -9.3293357874071469e-04 -1.6877979841559081e-04 -2.2743900608827764e-05  7.7693818164977932e-02 -1.7904786546837112e-03 -1.5023473268349348e-03  -5.8281815777980054e-04 -5.7315407583944983e-04 1.3764260138370999e-05  -6.8701312833756387e-04 -4.3679073660384302e-04 -1.9375927756481201e-05  7.7889080869725555e-02 -5.5149751799171646e-05 -3.1410571166727818e-04  -5.8361740795859879e-04 -5.8883595362906234e-04 2.0786032421820643e-07  -4.0847753921671975e-04 -7.3171466652730823e-04 6.9161368000801975e-05  -5.0784744081264059e-04 -5.7283271165176042e-04 5.4069584642844694e-06  7.7973614144125222e-02 1.5988434454861509e-04 -4.3271183078138646e-04  -3.9672959460236324e-04 -8.0975638829906241e-04 6.5446181138084739e-05  -2.1314100151559093e-04 -8.1960184815877009e-04 1.4211972418462214e-04  -2.9007782354659726e-04 -6.5571224772727232e-04 4.6104629778149360e-05  7.8251821180464171e-02 3.9750857639061918e-04 -6.7205642592558211e-04  -1.9854670009263536e-04 -9.8697298679073313e-04 1.7792756716431639e-04  1.0423922916183460e-06 -7.9560079163887147e-04 1.9550035581855396e-04  -3.6820553975167154e-05 -6.5745543137421363e-04 8.3121939657083703e-05  7.8768037944030714e-02 6.8611971210597825e-04 -9.9890687818865735e-04  -1.4771326891287628e-05 -1.0592082642266001e-03 3.0279940239239547e-04  2.6184119412847438e-04 -6.3993971357221386e-04 1.8447103888630804e-04  2.6186204005943832e-04 -5.5822591940641870e-04 8.9274905557808440e-05  7.9502121195355172e-02 9.3970189900808286e-04 -1.3267365517137739e-03  1.7095742481179952e-04 -9.5529828492029194e-04 3.6111316458881272e-04  6.0705399657451473e-04 -3.9660557510605497e-04 1.0422244280250055e-04  6.1719119515260968e-04 -3.7584262322027030e-04 5.4362899749807719e-05  8.0102659941225535e-02 1.0919660612453885e-03 -1.4329978947791571e-03  4.3716376354750155e-04 -6.7207995161459714e-04 2.7846801139706567e-04  1.0286141436523738e-03 -1.7317316382288954e-04 3.1578661132111596e-05  1.0162825054381424e-03 -1.8193484441502268e-04 1.1764353498364855e-05  7.9373923064985891e-02 1.0894154298687073e-03 -7.5961749450038061e-04  8.4217265021365784e-04 -3.4120933791370931e-04 1.0612091917606272e-04  1.3860105694297096e-03 -6.0115342063971172e-05 3.4138733558184103e-05  1.3803294760314846e-03 -6.4338447916088693e-05 1.9042080125369757e-05  7.5862539629233769e-02 7.8977525259785121e-04 6.7680267914495078e-04  1.2683527757238280e-03 -1.2304472957777444e-04 8.0940481122365331e-05  1.5673165473067210e-03 -3.6366258811128938e-05 4.4354847226944615e-05  1.5824458367867035e-03 -3.1370885316731620e-05 7.7236971272933552e-06  7.2724921958330677e-02 -1.3706579216614888e-04 -1.9345645412324382e-03  1.5407005964125117e-03 -8.2618698157881361e-05 6.3254985907087145e-05  -9.8217796631974740e-04 -1.6726575370086790e-04 -3.8210138480412394e-05  1.1294101005890331e-01 3.8526820754802165e-04 -4.2844600260746998e-04  -1.0762972986492754e-03 -1.0437801914582441e-04 -2.9501940199673891e-05  1.1413143380898172e-01 -1.7504259327684258e-03 -1.4858141896993060e-03  -8.1765071107456030e-04 -2.8322877119251675e-04 -5.2577235757050345e-05  1.1375067832320629e-01 3.8199772826912027e-04 -2.4730918041229364e-04  -6.0154366494037789e-04 -3.8189478327278797e-04 -5.7444475621637297e-05  1.1405831676080298e-01 4.3585723076223538e-04 -2.2153553524815046e-04  -3.2914852719158929e-04 -4.4187048637484217e-04 -5.3024688628372925e-05  1.1426978797640086e-01 5.9078321108809871e-04 -2.1811031479921400e-04  -3.2553167605563162e-06 -4.4682605474266742e-04 -4.4850536668802828e-05  1.1454382498290387e-01 7.5799943084621459e-04 -1.8607011167823311e-04  3.6765150591804013e-04 -3.8639423766085321e-04 -3.9417695364315708e-05  1.1483011188051487e-01 8.0253239048828267e-04 -6.0117714882594942e-05  7.6244696540365075e-04 -2.6943444534956401e-04 -3.8896408400677536e-05  1.1488763271703678e-01 6.0930957418555353e-04 2.3118348276806848e-04  1.1492569531156335e-03 -1.3717284946827561e-04 -3.5981949789594744e-05  1.1418548956649451e-01 1.9059417047799691e-04 7.2460095913500270e-04  1.4703011045741434e-03 -5.4796641078516758e-05 -7.7609150685621246e-06  1.1202879855635169e-01 -3.1199980115840430e-04 9.3548568814481403e-04  1.6425496184481940e-03 -3.0081374748791994e-05 -2.2000957309402288e-05  1.0929147683600313e-01 -1.8580308138180422e-04 -2.5696029468388676e-03  -1.0813111979242494e-03 -1.0475165481949972e-04 -4.4415892267282088e-05  1.2433386394418064e-01 2.1410423802183207e-04 -3.2730316378059475e-04  -1.1673255068914740e-03 -6.2615041272383293e-05 -3.1700420830284633e-05  1.2530710035000389e-01 -1.1554574913875348e-03 -1.3894351257758891e-03  -9.1065101708458272e-04 -1.8276352566454340e-04 -6.6759291772240214e-05  1.2501129323397581e-01 3.7685980688215669e-04 -1.4571269481028335e-04  -6.6763032731581161e-04 -2.5185291998697354e-04 -8.4991275746935742e-05  1.2534336965934198e-01 3.5941652561975322e-04 -8.1807590830765373e-05  -3.5464029302414453e-04 -2.9439566761823958e-04 -9.6902531503364990e-05  1.2562161868240654e-01 3.8393359979676579e-04 -1.7521809972686843e-05  2.1368861967760023e-05 -2.9878496830603813e-04 -1.0174985721645529e-04  1.2587379865014897e-01 4.0640786238923843e-04 8.8511126905853590e-05  4.4066367187971852e-04 -2.6000752664767293e-04 -9.6929822792762965e-05  1.2598474520269401e-01 3.3669538457336287e-04 2.8074583694842289e-04  8.6389548381311007e-04 -1.8396245819883418e-04 -8.0706788574429547e-05  1.2573230498599339e-01 1.0036781124156040e-04 5.8449283248487556e-04  1.2432310789529495e-03 -9.2675093633330327e-05 -5.7672524936383620e-05  1.2488943850132987e-01 -2.6675678626124751e-04 9.0492386861423433e-04  1.5316406731708994e-03 -3.6685481150751611e-05 -2.1935257480744207e-05  1.2331781155928470e-01 -6.0052642139615581e-04 6.5096524908435610e-04  1.6811607759279919e-03 -2.2555663729809859e-05 -3.0039224772366520e-05  1.2089753620440767e-01 -1.8149434410278986e-04 -2.4158703128488255e-03  -1.1475116801920508e-03 -6.3310903485785415e-05 -4.4679130885248573e-05  1.1315829900416512e-01 1.5210957046074303e-04 -2.6669998177696953e-04  -1.2239810448593294e-03 -3.7388466136060695e-05 -3.1728791673894773e-05  1.1396979764206257e-01 -6.6396944242594932e-04 -1.2808451686809347e-03  -9.7874261950542667e-04 -1.1853337937373178e-04 -6.6938341517231258e-05  1.1374904396552457e-01 2.3048715193983314e-04 -9.3380820744640400e-05  -7.2153512984997434e-04 -1.7203341668259455e-04 -8.6115940943717363e-05  1.1404055490027272e-01 1.6842184206377703e-04 -1.9860983348245228e-05  -3.8195402205532371e-04 -2.0990649862365438e-04 -1.0010106719793860e-04  1.1430547064049172e-01 9.8871467426328298e-05 5.2896735180873735e-05  2.8050557252366010e-05 -2.2199070646378657e-04 -1.0619893218705559e-04  1.1452562107418013e-01 1.6683794261141001e-05 1.6063426142110280e-04  4.8191117858974983e-04 -2.0407023207755288e-04 -9.9646721972929846e-05  1.1455627804524232e-01 -1.0619958037674173e-04 3.3289205415561082e-04  9.3087262544104587e-04 -1.5793321806092429e-04 -7.9036268017020477e-05  1.1420422814070277e-01 -2.7207223111859480e-04 5.7363743081969112e-04  1.3146438732874295e-03 -8.9873149139126286e-05 -5.3776442196684734e-05  1.1337064262615253e-01 -4.0479329602060725e-04 7.5036745193045567e-04  1.5783128007316274e-03 -3.5073776574039802e-05 -2.2380760594450394e-05  1.1213747600325792e-01 -3.5581473009142539e-04 3.6660568691705648e-04  1.7096413519049737e-03 -2.9205939195887744e-05 -2.6605826684767862e-05  1.1040493042819441e-01 7.8854404390425132e-06 -2.0504407874147915e-03  -1.1943585651658490e-03 -3.6346521586172481e-05 -4.4039443988508708e-05  7.6354119741741888e-02 1.0569608682915870e-04 -2.4610461180388194e-04  -1.2581408704903582e-03 -1.9570761222981033e-05 -3.1547540514486286e-05  7.6259911927009219e-02 -4.6393236122085392e-04 -1.1108789760115190e-03  -1.0411265084895702e-03 -7.5177636509836133e-05 -6.0828233649109745e-05  7.6844519355377283e-02 4.3226512881306099e-05 -7.9680973814409993e-05  -7.8660588247070427e-04 -1.2363582377625403e-04 -7.4129089905359370e-05  7.7019191747619203e-02 -1.0700999743570375e-04 -1.4652032139612318e-05  -4.3571975359773190e-04 -1.6868837182779293e-04 -8.3482433340992658e-05  7.7155920503229461e-02 -2.6130155850141219e-04 3.9708661967139700e-05  -5.0490539146393887e-06 -1.9659419156481289e-04 -8.6791715473097627e-05  7.7265151049818556e-02 -4.2886971510228312e-04 1.3343127113262009e-04  4.7403142376525989e-04 -2.0041016475759213e-04 -7.8479908861717377e-05  7.7240219689874906e-02 -5.9570787689427129e-04 2.8639884509794349e-04  9.5245203279196349e-04 -1.7852336089688647e-04 -5.7693906726100349e-05  7.6960691682965696e-02 -7.1893151041337294e-04 4.8114522264364488e-04  1.3671005509971719e-03 -1.3103344849670992e-04 -3.6258539805014460e-05  7.6357730625997863e-02 -7.2134664564109678e-04 5.9180061981550802e-04  1.6262742044509436e-03 -6.8628905915060599e-05 -1.4925381572956373e-05  7.5214335227899748e-02 -5.5272582495930107e-04 2.7145500277210978e-04  1.7416567247769080e-03 -4.7867358941548130e-05 -1.8752107281533642e-05  7.4489843151869267e-02 1.6663791544438173e-04 -1.6474166185142184e-03  -1.2403532169363034e-03 -3.1459158098274881e-05 -2.8776075822146911e-05  -1.2611972969139647e-03 -1.9401557471967852e-05 -2.9616558479915507e-05  -1.2715706624886877e-03 -1.6988217730415522e-05 -2.3169639488634855e-05  -1.2817585914098703e-03 -2.1659275952313819e-05 -2.3118672110138728e-05  -1.1242524532873918e-03 -6.3682968240401299e-05 -4.9206895363825944e-05  -1.1673539252685240e-03 -4.8174918675965781e-05 -5.2028915173871673e-05  -9.0981927595957884e-04 -1.0511079021702051e-04 -6.5809080276136859e-05  -9.9113802107011909e-04 -9.1231491311653790e-05 -6.8566511259629583e-05  -5.9732155421120573e-04 -1.4944179686398598e-04 -7.4401672966932717e-05  -7.1604643109449422e-04 -1.4069550935275773e-04 -8.0878895598022752e-05  -1.9631083327252091e-04 -1.8217533128210762e-04 -7.7724832989260146e-05  -3.4902576445011100e-04 -1.7977405015890240e-04 -8.9653865682324236e-05  2.7138519077964048e-04 -1.9385595229677344e-04 -7.3786927979028487e-05  9.1819335153109851e-05 -1.9825969929610621e-04 -9.0314822871695211e-05  7.6250978439231301e-04 -1.7907469066509476e-04 -5.9422468498128802e-05  5.7194682506954907e-04 -1.9163534661363854e-04 -7.8389294276632547e-05  1.2164979884954246e-03 -1.3476818722428529e-04 -3.9108980058314606e-05  1.0363039925753311e-03 -1.5705213916236539e-04 -5.7595500244814952e-05  1.5845113343867681e-03 -7.9213925880889429e-05 -1.6799619159362709e-05  1.4321990457737740e-03 -1.0302918500952145e-04 -3.3843743085047034e-05  1.7454269125313040e-03 -5.4830218973906026e-05 -2.2582133556466983e-06  1.6181887075681035e-03 -6.5103875126361680e-05 -1.7061374241423897e-05  1.1268037368218552e-01 -2.8801763161125543e-04 -1.4418087162718492e-04  -7.4492747147191939e-04 -3.5551568684201283e-04 -5.2859697535973674e-05  -8.5658948831321359e-04 -2.3112186570130194e-04 -4.6488168667144826e-05  1.1366513056022780e-01 -1.7761816665122214e-03 -1.1897676484029897e-03  1.1359062422879163e-01 -6.2379937519213460e-05 -1.3353062596325771e-04  -5.6202343879285354e-04 -6.1496771457892328e-04 -5.5520965360025957e-05  1.1350544162302154e-01 1.5693396516159900e-04 -3.6126520034449717e-04  -3.1027749014256946e-04 -9.1513472374029942e-04 3.2651097451108380e-06  1.1354902530421751e-01 4.2069862825364274e-04 -7.4559749906986223e-04  -4.1650380895346143e-05 -1.2395594791398204e-03 1.5927148579738599e-04  1.1387215501108879e-01 8.2034541644938788e-04 -1.2988303600124963e-03  1.6709573908130652e-04 -1.5176472727980032e-03 4.1467893212065500e-04  1.1470515233698343e-01 1.2754003715025677e-03 -1.9032326277393450e-03  2.6288733862095414e-04 -1.5944089998494494e-03 6.8053955980612775e-04  1.1625815469412934e-01 1.4489680800294060e-03 -2.2348196430059461e-03  3.3486142909730824e-04 -1.3141132920353007e-03 7.4087521323097118e-04  1.1687060351197409e-01 1.4437061259889121e-03 -1.7853215352264440e-03  6.2755047589038292e-04 -7.5870480496452951e-04 4.2186400954458044e-04  1.1185728425761622e-01 1.4622131217554807e-03 3.1527860489903857e-04  1.0436368344892936e-03 -2.9440151501311686e-04 2.3225395252661778e-04  1.0573022476264536e-01 -4.4961949231160944e-05 -3.5419043935739918e-03  1.3938328003391324e-03 -2.0276973272755449e-04 2.4982671518817651e-04  1.7263445626495696e-01 5.3382345544521865e-04 -8.6057618913407713e-05  1.7335724377540504e-01 -1.8002252702156905e-03 -1.2026528079701858e-03  1.7333352745571787e-01 4.3912204011160866e-04 -1.1734369796363383e-04  1.7366163228509501e-01 5.4721132227677387e-04 -2.4338261211905292e-04  1.7376179272408757e-01 8.4539213726860679e-04 -3.7294927073715608e-04  1.7389222794862877e-01 1.2594232137555089e-03 -4.7370716915061482e-04  1.7417700038032896e-01 1.5821760461522999e-03 -4.2237351103123038e-04  1.7460162155163159e-01 1.4122617481502594e-03 -5.3924217587690359e-05  1.7447233357300740e-01 5.5912960619396948e-04 6.6033572021607294e-04  1.7178936540019935e-01 -4.3701703581120447e-04 8.9209296281162799e-04  1.6603593498996380e-01 3.0972417287147830e-04 -4.8730523112181252e-03  1.9146452064872369e-01 3.1939694234486328e-04 -3.5615268737951411e-05  1.9186468887219343e-01 -1.1687342547621721e-03 -1.1710116868534478e-03  1.9199231598216607e-01 4.7708837980631462e-04 -6.8938581990086897e-05  1.9235068244602355e-01 4.7401249552475540e-04 -1.4183627075649806e-04  1.9255970289531213e-01 5.7047145773914088e-04 -1.8675692967299291e-04  1.9273322800635084e-01 7.2132821787974867e-04 -1.9537677769576218e-04  1.9287068403151406e-01 7.8565713016836777e-04 -1.0760456513564219e-04  1.9281168001380014e-01 5.4432557412148475e-04 1.5646691679034713e-04  1.9213778089183040e-01 -1.1847133753439251e-04 5.7663792924660551e-04  1.9019105171106904e-01 -8.9768082951446958e-04 2.2131798846897741e-04  1.8543070312699791e-01 1.8556641483992849e-04 -4.6647267300691797e-03  1.7283899909622491e-01 2.2305505084786037e-04 -2.0404673241837919e-05  1.7305226928706366e-01 -6.3930889792368191e-04 -1.1191879757748103e-03  1.7327228846962789e-01 3.2500385318503643e-04 -3.9390577728263897e-05  1.7357979902478268e-01 2.6349918110591666e-04 -8.8312599418075062e-05  1.7378607435699556e-01 2.1452994719505457e-04 -1.0161988550840296e-04  1.7394316808452334e-01 1.7695444344946045e-04 -8.8597540797644004e-05  1.7399103295257526e-01 9.1086893385764552e-05 -2.8878308243932271e-05  1.7373001427255133e-01 -1.1297901827643244e-04 1.0435960620913346e-04  1.7291022118780269e-01 -4.1962992757672645e-04 2.9674145319398169e-04  1.7148133249407510e-01 -5.7835283610859238e-04 -2.6666894647798595e-04  1.6848147547211190e-01 4.2566186873829688e-04 -4.0256959260507822e-03  1.1289284739469541e-01 1.4838896730500555e-04 -1.3499575840357942e-05  1.1229532657240236e-01 -4.2605161111883391e-04 -1.0110566098720101e-03  1.1321665381104126e-01 9.7973661450364796e-05 -1.8519342501863812e-05  1.1338714256769630e-01 -5.1039975992714202e-05 -6.2158878233269145e-05  1.1346819157374946e-01 -2.1768958882056451e-04 -6.4637267348587860e-05  1.1350653256715118e-01 -3.8805489724390031e-04 -3.1388768051167145e-05  1.1346813711502590e-01 -5.6873980243567787e-04 4.9026643033043941e-05  1.1321301146114199e-01 -7.4401883295167643e-04 1.8735928921106851e-04  1.1256273067996285e-01 -8.2089437695938728e-04 3.0615930288110921e-04  1.1135523226076982e-01 -6.3179453776577785e-04 -2.6527451957604329e-04  1.1039377926434067e-01 5.5217117707729148e-04 -3.1762165239850944e-03  -1.2923444205283855e-03 -1.9162997103163705e-05 -2.2087248118143829e-05  -1.3131787131314143e-03 -2.0580898974452533e-05 -2.1062417893496668e-05  -1.1969942688800253e-03 -4.5606222983974957e-05 -5.0765844913922714e-05  -1.0183311825069218e-03 -8.3343958432372181e-05 -8.0854120032991801e-05  -7.4445210671712867e-04 -1.2533428441286165e-04 -1.0620618553489327e-04  -3.7767363742727066e-04 -1.5788735170354362e-04 -1.2605472812158715e-04  7.0304620100491608e-05 -1.7153475022901955e-04 -1.3601182403823945e-04  5.6412485118338782e-04 -1.6163173305598267e-04 -1.3023086904221962e-04  1.0388008891855278e-03 -1.2722457306856293e-04 -1.0869027721954061e-04  1.4435872054206708e-03 -8.0219863924663808e-05 -7.3633925477828126e-05  1.6197665683290285e-03 -5.1097907589253557e-05 -4.2400130379240763e-05  1.2388594020455930e-01 -2.7584625639516893e-04 1.3298880248740687e-05  -7.9116217477654609e-04 -3.2152368062942987e-04 -9.3911697630936976e-05  -9.1168062441605597e-04 -2.0004111719359511e-04 -7.0973381430872374e-05  1.2488674480390480e-01 -1.7797536738512556e-03 -9.7800337661930851e-04  1.2472710617847560e-01 -1.8423510215094962e-05 9.4815371725942040e-05  -5.7096781193669097e-04 -5.8341554994913094e-04 -1.4193069697417013e-04  1.2451874406482387e-01 1.8996825013929648e-04 -1.0746431944435709e-05  -2.3401834551101334e-04 -9.3661672689320614e-04 -1.3179762703368955e-04  1.2444092202443280e-01 4.6249270434335166e-04 -2.6077576367612866e-04  1.7750519621068569e-04 -1.4167729781362699e-03 1.1068663348420067e-05  1.2459763598937210e-01 9.9669106980819293e-04 -7.6233449198275178e-04  5.5006206671501994e-04 -2.0113662259281032e-03 3.8026063503957881e-04  1.2521430568305411e-01 1.9472901898610251e-03 -1.5156187356420378e-03  6.7577705335383677e-04 -2.5449161845788309e-03 1.0077464256399292e-03  1.2703330564287157e-01 2.8552921382939819e-03 -2.2005881074829473e-03  4.3157163741555307e-04 -2.6149079281572074e-03 1.6525000438629457e-03  1.2997893542713285e-01 1.8129676586277927e-03 -2.2807907745890400e-03  2.8574652566798204e-04 -1.8687324575404863e-03 1.6505998395213830e-03  1.2375781363640179e-01 1.8072623914828809e-03 -1.8479567925116750e-03  4.2867174719710285e-04 -8.1633608502467282e-04 6.9200522727925085e-04  1.0790052484758697e-01 2.2054345803265165e-03 -6.5268857296786539e-03  5.8046529935316970e-04 -5.8464864551781607e-04 1.1595313360981832e-03  1.9129594168443276e-01 5.3024107436093211e-04 -1.7300315693531484e-05  1.9199316525014148e-01 -1.7884024232126638e-03 -9.5537357642751783e-04  1.9197026023135069e-01 4.4422018738668755e-04 3.5850281394751092e-05  1.9228623657759369e-01 5.7311499243130673e-04 -4.8196622939818331e-05  1.9242603676774475e-01 9.6009248700419420e-04 -1.6850621386543601e-04  1.9259549108056601e-01 1.6450292797082493e-03 -2.9779910913539209e-04  1.9286249614202394e-01 2.5384323168599525e-03 -3.0422733429823044e-04  1.9333188104303164e-01 2.8904724959329898e-03 7.5242056578077668e-05  1.9351460105488724e-01 1.3141416665719667e-03 8.5461160781236155e-04  1.8998453771598767e-01 -1.3933243726339125e-03 1.0369894264366639e-03  1.7903206351543513e-01 1.2577664807338468e-03 -8.2133817247190700e-03  2.1260622620104927e-01 3.3950063308746869e-04 2.2476634856512376e-06  2.1295143742029693e-01 -1.1417258316290570e-03 -9.3189157773990758e-04  2.1309959520780827e-01 4.9658450825678377e-04 5.9423074122860089e-05  2.1346029969032951e-01 5.1145783167742050e-04 2.2254405954213236e-05  2.1370898428594254e-01 6.6696000343323977e-04 -4.4631184136080395e-06  2.1393927713422844e-01 9.5198480940824270e-04 -4.5016243748485838e-06  2.1415180031682074e-01 1.2193164402968368e-03 5.0793450377363069e-05  2.1419403339430815e-01 1.0488017543298696e-03 1.7591547647701080e-04  2.1331817556203025e-01 -8.8560957622599334e-05 2.8128414126292256e-04  2.1023405032470138e-01 -1.7226916517847051e-03 -7.0858612018732410e-05  2.0214872382923224e-01 6.2660793058635130e-04 -7.4428153523218967e-03  1.9151093829721572e-01 2.4576945675200553e-04 1.1860667010378538e-05  1.9166631857301158e-01 -5.9495291330502475e-04 -8.9239548057495270e-04  1.9189954207711837e-01 3.5004842677316568e-04 7.59537788301