<?xml version="1.0"?>
<VTKFile type="UnstructuredGrid"  version="0.1"  >
<UnstructuredGrid>
<Piece  NumberOfPoints="533" NumberOfCells="2122">
<Points>
<DataArray  type="Float64"  NumberOfComponents="3"  format="ascii">0 0.2 0.2  0.1 0.2 0.2  0.1 0.3 0.2  0.1 0.3 0.3  0.1 0.2 0.3  0 0.2 0.3  0 0.3 0.2  0 0.3 0.3  0.2 0.2 0.2  0.2 0.3 0.2  0.2 0.3 0.3  0.2 0.2 0.3  0.3 0.2 0.2  0.3 0.3 0.2  0.3 0.3 0.3  0.3 0.2 0.3  0.4 0.2 0.2  0.4 0.3 0.2  0.4 0.3 0.3  0.4 0.2 0.3  0.5 0.2 0.2  0.5 0.3 0.2  0.5 0.3 0.3  0.5 0.2 0.3  0.6 0.2 0.2  0.6 0.3 0.2  0.6 0.3 0.3  0.6 0.2 0.3  0.7 0.2 0.2  0.7 0.3 0.2  0.7 0.3 0.3  0.7 0.2 0.3  0.8 0.2 0.2  0.8 0.3 0.2  0.8 0.3 0.3  0.8 0.2 0.3  0.9 0.2 0.2  0.9 0.3 0.2  0.9 0.3 0.3  0.9 0.2 0.3  1 0.2 0.2  1 0.3 0.2  1 0.3 0.3  1 0.2 0.3  0.1 0.4 0.2  0.1 0.4 0.3  0 0.4 0.2  0 0.4 0.3  0.2 0.4 0.2  0.2 0.4 0.3  0.3 0.4 0.2  0.3 0.4 0.3  0.4 0.4 0.2  0.4 0.4 0.3  0.5 0.4 0.2  0.5 0.4 0.3  0.6 0.4 0.2  0.6 0.4 0.3  0.7 0.4 0.2  0.7 0.4 0.3  0.8 0.4 0.2  0.8 0.4 0.3  0.9 0.4 0.2  0.9 0.4 0.3  1 0.4 0.2  1 0.4 0.3  0.1 0.5 0.2  0.1 0.5 0.3  0 0.5 0.2  0 0.5 0.3  0.2 0.5 0.2  0.2 0.5 0.3  0.3 0.5 0.2  0.3 0.5 0.3  0.4 0.5 0.2  0.4 0.5 0.3  0.5 0.5 0.2  0.5 0.5 0.3  0.6 0.5 0.2  0.6 0.5 0.3  0.7 0.5 0.2  0.7 0.5 0.3  0.8 0.5 0.2  0.8 0.5 0.3  0.9 0.5 0.2  0.9 0.5 0.3  1 0.5 0.2  1 0.5 0.3  0.1 0.6 0.2  0.1 0.6 0.3  0 0.6 0.2  0 0.6 0.3  0.2 0.6 0.2  0.2 0.6 0.3  0.3 0.6 0.2  0.3 0.6 0.3  0.4 0.6 0.2  0.4 0.6 0.3  0.5 0.6 0.2  0.5 0.6 0.3  0.6 0.6 0.2  0.6 0.6 0.3  0.7 0.6 0.2  0.7 0.6 0.3  0.8 0.6 0.2  0.8 0.6 0.3  0.9 0.6 0.2  0.9 0.6 0.3  1 0.6 0.2  1 0.6 0.3  0.1 0.7 0.2  0.1 0.7 0.3  0 0.7 0.2  0 0.7 0.3  0.2 0.7 0.2  0.2 0.7 0.3  0.3 0.7 0.2  0.3 0.7 0.3  0.4 0.7 0.2  0.4 0.7 0.3  0.5 0.7 0.2  0.5 0.7 0.3  0.6 0.7 0.2  0.6 0.7 0.3  0.7 0.7 0.2  0.7 0.7 0.3  0.8 0.7 0.2  0.8 0.7 0.3  0.9 0.7 0.2  0.9 0.7 0.3  1 0.7 0.2  1 0.7 0.3  0.1 0.8 0.2  0.1 0.8 0.3  0 0.8 0.2  0 0.8 0.3  0.2 0.8 0.2  0.2 0.8 0.3  0.3 0.8 0.2  0.3 0.8 0.3  0.4 0.8 0.2  0.4 0.8 0.3  0.5 0.8 0.2  0.5 0.8 0.3  0.6 0.8 0.2  0.6 0.8 0.3  0.7 0.8 0.2  0.7 0.8 0.3  0.8 0.8 0.2  0.8 0.8 0.3  0.9 0.8 0.2  0.9 0.8 0.3  1 0.8 0.2  1 0.8 0.3  0.1 0.3 0.4  0.1 0.2 0.4  0 0.2 0.4  0 0.3 0.4  0.2 0.3 0.4  0.2 0.2 0.4  0.3 0.3 0.4  0.3 0.2 0.4  0.4 0.3 0.4  0.4 0.2 0.4  0.5 0.3 0.4  0.5 0.2 0.4  0.6 0.3 0.4  0.6 0.2 0.4  0.7 0.3 0.4  0.7 0.2 0.4  0.8 0.3 0.4  0.8 0.2 0.4  0.9 0.3 0.4  0.9 0.2 0.4  1 0.3 0.4  1 0.2 0.4  0.1 0.4 0.4  0 0.4 0.4  0.2 0.4 0.4  0.3 0.4 0.4  0.4 0.4 0.4  0.5 0.4 0.4  0.6 0.4 0.4  0.7 0.4 0.4  0.8 0.4 0.4  0.9 0.4 0.4  1 0.4 0.4  0.1 0.5 0.4  0 0.5 0.4  0.2 0.5 0.4  0.3 0.5 0.4  0.4 0.5 0.4  0.5 0.5 0.4  0.6 0.5 0.4  0.7 0.5 0.4  0.8 0.5 0.4  0.9 0.5 0.4  1 0.5 0.4  0.1 0.6 0.4  0 0.6 0.4  0.2 0.6 0.4  0.3 0.6 0.4  0.4 0.6 0.4  0.5 0.6 0.4  0.6 0.6 0.4  0.7 0.6 0.4  0.8 0.6 0.4  0.9 0.6 0.4  1 0.6 0.4  0.1 0.7 0.4  0 0.7 0.4  0.2 0.7 0.4  0.3 0.7 0.4  0.4 0.7 0.4  0.5 0.7 0.4  0.6 0.7 0.4  0.7 0.7 0.4  0.8 0.7 0.4  0.9 0.7 0.4  1 0.7 0.4  0.1 0.8 0.4  0 0.8 0.4  0.2 0.8 0.4  0.3 0.8 0.4  0.4 0.8 0.4  0.5 0.8 0.4  0.6 0.8 0.4  0.7 0.8 0.4  0.8 0.8 0.4  0.9 0.8 0.4  1 0.8 0.4  0.1 0.3 0.5  0.1 0.2 0.5  0 0.2 0.5  0 0.3 0.5  0.2 0.3 0.5  0.2 0.2 0.5  0.3 0.3 0.5  0.3 0.2 0.5  0.4 0.3 0.5  0.4 0.2 0.5  0.5 0.3 0.5  0.5 0.2 0.5  0.6 0.3 0.5  0.6 0.2 0.5  0.7 0.3 0.5  0.7 0.2 0.5  0.8 0.3 0.5  0.8 0.2 0.5  0.9 0.3 0.5  0.9 0.2 0.5  1 0.3 0.5  1 0.2 0.5  0.1 0.4 0.5  0 0.4 0.5  0.2 0.4 0.5  0.3 0.4 0.5  0.4 0.4 0.5  0.5 0.4 0.5  0.6 0.4 0.5  0.7 0.4 0.5  0.8 0.4 0.5  0.9 0.4 0.5  1 0.4 0.5  0.1 0.5 0.5  0 0.5 0.5  0.2 0.5 0.5  0.3 0.5 0.5  0.4 0.5 0.5  0.5 0.5 0.5  0.6 0.5 0.5  0.7 0.5 0.5  0.8 0.5 0.5  0.9 0.5 0.5  1 0.5 0.5  0.1 0.6 0.5  0 0.6 0.5  0.2 0.6 0.5  0.3 0.6 0.5  0.4 0.6 0.5  0.5 0.6 0.5  0.6 0.6 0.5  0.7 0.6 0.5  0.8 0.6 0.5  0.9 0.6 0.5  1 0.6 0.5  0.1 0.7 0.5  0 0.7 0.5  0.2 0.7 0.5  0.3 0.7 0.5  0.4 0.7 0.5  0.5 0.7 0.5  0.6 0.7 0.5  0.7 0.7 0.5  0.8 0.7 0.5  0.9 0.7 0.5  1 0.7 0.5  0.1 0.8 0.5  0 0.8 0.5  0.2 0.8 0.5  0.3 0.8 0.5  0.4 0.8 0.5  0.5 0.8 0.5  0.6 0.8 0.5  0.7 0.8 0.5  0.8 0.8 0.5  0.9 0.8 0.5  1 0.8 0.5  0.1 0.3 0.6  0.1 0.2 0.6  0 0.2 0.6  0 0.3 0.6  0.2 0.3 0.6  0.2 0.2 0.6  0.3 0.3 0.6  0.3 0.2 0.6  0.4 0.3 0.6  0.4 0.2 0.6  0.5 0.3 0.6  0.5 0.2 0.6  0.6 0.3 0.6  0.6 0.2 0.6  0.7 0.3 0.6  0.7 0.2 0.6  0.8 0.3 0.6  0.8 0.2 0.6  0.9 0.3 0.6  0.9 0.2 0.6  1 0.3 0.6  1 0.2 0.6  0.1 0.4 0.6  0 0.4 0.6  0.2 0.4 0.6  0.3 0.4 0.6  0.4 0.4 0.6  0.5 0.4 0.6  0.6 0.4 0.6  0.7 0.4 0.6  0.8 0.4 0.6  0.9 0.4 0.6  1 0.4 0.6  0.1 0.5 0.6  0 0.5 0.6  0.2 0.5 0.6  0.3 0.5 0.6  0.4 0.5 0.6  0.5 0.5 0.6  0.6 0.5 0.6  0.7 0.5 0.6  0.8 0.5 0.6  0.9 0.5 0.6  1 0.5 0.6  0.1 0.6 0.6  0 0.6 0.6  0.2 0.6 0.6  0.3 0.6 0.6  0.4 0.6 0.6  0.5 0.6 0.6  0.6 0.6 0.6  0.7 0.6 0.6  0.8 0.6 0.6  0.9 0.6 0.6  1 0.6 0.6  0.1 0.7 0.6  0 0.7 0.6  0.2 0.7 0.6  0.3 0.7 0.6  0.4 0.7 0.6  0.5 0.7 0.6  0.6 0.7 0.6  0.7 0.7 0.6  0.8 0.7 0.6  0.9 0.7 0.6  1 0.7 0.6  0.1 0.8 0.6  0 0.8 0.6  0.2 0.8 0.6  0.3 0.8 0.6  0.4 0.8 0.6  0.5 0.8 0.6  0.6 0.8 0.6  0.7 0.8 0.6  0.8 0.8 0.6  0.9 0.8 0.6  1 0.8 0.6  0.1 0.3 0.7  0.1 0.2 0.7  0 0.2 0.7  0 0.3 0.7  0.2 0.3 0.7  0.2 0.2 0.7  0.3 0.3 0.7  0.3 0.2 0.7  0.4 0.3 0.7  0.4 0.2 0.7  0.5 0.3 0.7  0.5 0.2 0.7  0.6 0.3 0.7  0.6 0.2 0.7  0.7 0.3 0.7  0.7 0.2 0.7  0.8 0.3 0.7  0.8 0.2 0.7  0.9 0.3 0.7  0.9 0.2 0.7  1 0.3 0.7  1 0.2 0.7  0.1 0.4 0.7  0 0.4 0.7  0.2 0.4 0.7  0.3 0.4 0.7  0.4 0.4 0.7  0.5 0.4 0.7  0.6 0.4 0.7  0.7 0.4 0.7  0.8 0.4 0.7  0.9 0.4 0.7  1 0.4 0.7  0.1 0.5 0.7  0 0.5 0.7  0.2 0.5 0.7  0.3 0.5 0.7  0.4 0.5 0.7  0.5 0.5 0.7  0.6 0.5 0.7  0.7 0.5 0.7  0.8 0.5 0.7  0.9 0.5 0.7  1 0.5 0.7  0.1 0.6 0.7  0 0.6 0.7  0.2 0.6 0.7  0.3 0.6 0.7  0.4 0.6 0.7  0.5 0.6 0.7  0.6 0.6 0.7  0.7 0.6 0.7  0.8 0.6 0.7  0.9 0.6 0.7  1 0.6 0.7  0.1 0.7 0.7  0 0.7 0.7  0.2 0.7 0.7  0.3 0.7 0.7  0.4 0.7 0.7  0.5 0.7 0.7  0.6 0.7 0.7  0.7 0.7 0.7  0.8 0.7 0.7  0.9 0.7 0.7  1 0.7 0.7  0.1 0.8 0.7  0 0.8 0.7  0.2 0.8 0.7  0.3 0.8 0.7  0.4 0.8 0.7  0.5 0.8 0.7  0.6 0.8 0.7  0.7 0.8 0.7  0.8 0.8 0.7  0.9 0.8 0.7  1 0.8 0.7  0.1 0.3 0.8  0.1 0.2 0.8  0 0.2 0.8  0 0.3 0.8  0.2 0.3 0.8  0.2 0.2 0.8  0.3 0.3 0.8  0.3 0.2 0.8  0.4 0.3 0.8  0.4 0.2 0.8  0.5 0.3 0.8  0.5 0.2 0.8  0.6 0.3 0.8  0.6 0.2 0.8  0.7 0.3 0.8  0.7 0.2 0.8  0.8 0.3 0.8  0.8 0.2 0.8  0.9 0.3 0.8  0.9 0.2 0.8  1 0.3 0.8  1 0.2 0.8  0.1 0.4 0.8  0 0.4 0.8  0.2 0.4 0.8  0.3 0.4 0.8  0.4 0.4 0.8  0.5 0.4 0.8  0.6 0.4 0.8  0.7 0.4 0.8  0.8 0.4 0.8  0.9 0.4 0.8  1 0.4 0.8  0.1 0.5 0.8  0 0.5 0.8  0.2 0.5 0.8  0.3 0.5 0.8  0.4 0.5 0.8  0.5 0.5 0.8  0.6 0.5 0.8  0.7 0.5 0.8  0.8 0.5 0.8  0.9 0.5 0.8  1 0.5 0.8  0.1 0.6 0.8  0 0.6 0.8  0.2 0.6 0.8  0.3 0.6 0.8  0.4 0.6 0.8  0.5 0.6 0.8  0.6 0.6 0.8  0.7 0.6 0.8  0.8 0.6 0.8  0.9 0.6 0.8  1 0.6 0.8  0.1 0.7 0.8  0 0.7 0.8  0.2 0.7 0.8  0.3 0.7 0.8  0.4 0.7 0.8  0.5 0.7 0.8  0.6 0.7 0.8  0.7 0.7 0.8  0.8 0.7 0.8  0.9 0.7 0.8  1 0.7 0.8  0.1 0.8 0.8  0 0.8 0.8  0.2 0.8 0.8  0.3 0.8 0.8  0.4 0.8 0.8  </DataArray>
</Points>
<Cells>
[...]
<PointData  Vectors="f_23"> 
<DataArray  type="Float64"  Name="f_23"  NumberOfComponents="3" format="ascii">9.3444160918822042e-04 -2.2634346478885700e-04 4.6418922881330589e-05  7.8572683772905967e-04 -2.6580413337085713e-04 9.6167375174854009e-05  8.4673880718319321e-04 -8.7302300468778451e-05 1.2166423673703962e-04  1.6301078177508196e-02 -2.9935288703351729e-04 -2.6558132044295540e-04  9.5991063241595989e-04 -1.9845583285545029e-04 2.1931087858724908e-04  1.1164808410271954e-03 -1.8170414326636999e-04 1.8185866477888650e-04  9.8125409160267551e-04 -2.8915709728095071e-05 6.2092169722368525e-05  1.4396938642329576e-02 -2.1212118793396826e-04 -1.6776686097116257e-04  3.3640461260024039e-04 -3.2592460637876703e-04 2.0159651642202272e-04  4.4856660069677174e-04 -1.2441593545713944e-04 1.9701223014902992e-04  1.7164133494971739e-02 -6.0798724075635880e-04 -3.6018271414980284e-04  5.4431845073304736e-04 -2.7963745979281055e-04 3.6625233303453080e-04  -1.5819135460759710e-04 -3.2152531923408569e-04 3.3352544292898406e-04  -5.9072761212161873e-05 -1.2474431259315591e-04 3.1510264605952775e-04  1.7130853460244688e-02 -5.3496759687026026e-04 -1.5505806568028434e-04  3.0720457742346466e-05 -2.7819373734011430e-04 5.3086294541110184e-04  -5.6902381077803259e-04 -2.8427319339581779e-04 4.5465840345946043e-04  -5.0925939434195381e-04 -1.1935707597426945e-04 4.2891864994761675e-04  1.6934111398050251e-02 -4.1070645565857781e-04 1.2318886067065886e-04  -4.4033261121213482e-04 -2.2971255509825000e-04 6.7811148363293959e-04  -7.9673566519384556e-04 -2.2885066753675849e-04 5.4503265767299135e-04  -7.8709130015605416e-04 -1.1205656342272606e-04 5.1925906193939328e-04  1.6574390800958620e-02 -3.3505161100885126e-04 3.7668495279792998e-04  -7.5886836508229079e-04 -1.4817788275046231e-04 7.8655355020992108e-04  -7.8439393108714281e-04 -1.7100613391813897e-04 5.8797732265026875e-04  -8.2669560072690432e-04 -1.0112346956747014e-04 5.6750994089875475e-04  1.6218932379233549e-02 -3.3062574317842242e-04 5.1343305719918310e-04  -8.5949272674164994e-04 -6.1690196689534005e-05 8.3823358893627157e-04  -5.0078505196431459e-04 -1.1960350703342654e-04 5.4484882272305896e-04  -5.9581329454324683e-04 -8.5963742255208025e-05 5.3448160913846759e-04  1.6151326400367830e-02 -3.3685674468985992e-04 3.8912349671177740e-04  -7.0798394817055870e-04 -1.7707758805096314e-05 8.0404848471360023e-04  6.2975978350456326e-05 -5.9006321087505349e-05 3.5916125501103772e-04  -7.8891938518796045e-05 -5.8979292853335548e-05 3.6848514827437433e-04  1.6613049332598516e-02 -2.7623843939040372e-04 -2.3835689628500225e-04  -2.7397108167246195e-04 -1.7383375298848056e-05 5.6788597391124935e-04  6.5006266518982116e-04 -2.4208655290313127e-05 1.2793821213228355e-04  5.6707848138862411e-04 -2.2802318664843119e-05 1.6078565889810138e-04  1.7440170145830939e-02 -8.8840758902983122e-05 -1.1492134787037707e-03  3.5262451294996511e-04 -1.9992480175016035e-05 2.1673873474957928e-04  9.6382348303948704e-04 -4.7244375362453370e-05 1.8805873556160108e-04  9.1193246441586043e-04 -4.5341498903019197e-05 2.2711059679802261e-04  1.7965096793642700e-02 -1.4620348362644211e-04 -1.1372873182268182e-03  7.3222037254981761e-04 -8.7077783683941695e-06 2.3976934007182332e-04  8.3333164747292161e-04 1.3089856789195200e-04 2.2202775554347939e-04  5.1916976251793007e-02 -1.1912238406214132e-04 -3.2661316350384698e-04  9.8869710184126521e-04 1.1939040012176436e-04 1.6078510312626890e-04  5.0172515007695630e-02 -1.1397866668970481e-03 -1.4986370542426869e-05  4.5859533448532573e-04 1.5853757509815510e-04 3.0597546015551292e-04  5.2907408508198937e-02 -3.3155036803211797e-04 -6.4280283415112571e-04  -5.3801497547552490e-05 1.6174211358185744e-04 4.0736630864440045e-04  5.2970746061391162e-02 -2.8621940376077394e-04 -4.0761357464470560e-04  -5.2328688771292647e-04 1.2725005666264919e-04 4.8178541493985199e-04  5.2799922925690232e-02 -1.7093777298036935e-04 -6.7187592503044151e-05  -8.1319139970958455e-04 6.6639152577080497e-05 5.3271243013390892e-04  5.2466561877402243e-02 -1.4037273137357232e-04 1.6275772390163297e-04  -8.5281217370373032e-04 6.2738459430775351e-06 5.5888162811454660e-04  5.2221968576944500e-02 -2.0869550836036862e-04 1.5163063420976837e-04  -6.1308111385526454e-04 -2.8495281930325786e-05 5.2323292646994145e-04  5.2417204971909583e-02 -2.5444773614972488e-04 -1.9994670334506497e-04  -7.3081343706175012e-05 -2.8764483448952116e-05 3.6690355659836502e-04  5.3217595846072267e-02 -1.0502240575726569e-04 -9.8405252160814471e-04  6.0648826485835245e-04 -2.0052997029033384e-05 1.7905464012152192e-04  5.4267576874716818e-02 3.1740118467108884e-04 -1.8675919301272402e-03  9.3966371463540346e-04 -3.2053801516838570e-05 2.5926278837327444e-04  5.5365335997827156e-02 -2.1978707366861685e-04 -1.8695625613770683e-03  9.0574739985576237e-04 1.9816974806459561e-04 3.5501314857674297e-04  6.6075528258888946e-02 -1.4879620698323112e-04 -6.3992121737698545e-04  1.1028502587296745e-03 1.6347529585976245e-04 2.9261561814197275e-04  6.4357565000976613e-02 -1.0570977930517656e-03 -2.8945108534366283e-04  4.8547774625141066e-04 2.5351556967976425e-04 4.6536380751610075e-04  6.7128103035354783e-02 -6.6929456224390415e-05 -1.0583305524300914e-03  -7.4191078869484303e-05 2.5930183240332333e-04 5.4162989618930946e-04  6.7188280211907148e-02 6.9791057513158728e-05 -7.8111099057499790e-04  -5.8894613939892743e-04 2.0538844657044233e-04 5.5055414002399801e-04  6.7016583279508282e-02 2.2558358026681890e-04 -2.7849028044487967e-04  -8.9849008490674976e-04 1.1038827168904187e-04 5.2656193902175276e-04  6.6633128293013294e-02 2.6733752764227273e-04 2.0520244963571360e-05  -9.2114007081589252e-04 1.5158724098083427e-05 4.9818772466932127e-04  6.6382627891946905e-02 1.9208656344523283e-04 -5.0095262122220922e-05  -6.4230770068049729e-04 -3.5719711282141111e-05 4.4753689018372307e-04  6.6696418863371035e-02 1.4431280480630736e-04 -5.1294036169516181e-04  -6.9482626436775564e-05 -2.6472647126916716e-05 3.2013184003423648e-04  6.7699165040050996e-02 3.3454059472571619e-04 -1.3165131580409374e-03  6.3318604553994930e-04 -1.5052609128332475e-05 1.7024273160594138e-04  6.8875592492484872e-02 8.5955305906601455e-04 -2.0572662635365007e-03  9.7081510407269478e-04 4.9672980159772913e-06 2.4923331407998258e-04  6.9893192056436709e-02 2.2978012711149753e-04 -2.2436656002662648e-03  9.9756472618327328e-04 1.5305664805241690e-04 4.3492743943213070e-04  5.2301279130371393e-02 2.6846300342580790e-04 -8.6049125983105555e-04  1.2300840170819225e-03 1.3199034710842226e-04 3.6446616373661582e-04  5.0689296801943638e-02 -2.5443440146828217e-04 -6.2287112102736640e-04  5.1666000819598941e-04 1.8934717891054483e-04 5.5897864041838565e-04  5.3449297025286530e-02 3.2082885486772180e-04 -1.3235080938686528e-03  -1.0015450699318154e-04 1.8070574452833037e-04 6.1580484055478112e-04  5.3511012153902242e-02 4.6611228924246188e-04 -9.7438221485660385e-04  -6.6722062273704634e-04 1.2688113259183299e-04 5.6930565867673261e-04  5.3288665209497071e-02 6.0702927697645775e-04 -3.0014892481063115e-04  -1.0015264800869641e-03 4.1027165303110676e-05 4.7186279719552924e-04  5.2783252033394727e-02 6.3555028161333565e-04 8.6865920706171476e-05  -9.9924343740533496e-04 -4.4175485457465408e-05 3.7868822264615506e-04  5.2435524322355924e-02 5.6575469053079261e-04 1.1344074496881010e-05  -6.6017332573122976e-04 -8.6280096258937664e-05 3.0379798063451897e-04  5.2739093777428948e-02 5.1385263410161049e-04 -4.5349226057860177e-04  -4.6387907688674042e-05 -6.0457866805438144e-05 2.1582627091408076e-04  5.3781942788376932e-02 6.7493099922573559e-04 -1.1584429921934843e-03  6.5311284345814118e-04 -1.9349483181069784e-05 1.2560744098471228e-04  5.4849729631194548e-02 1.3328796514465279e-03 -1.6509623633552740e-03  9.9343580522783990e-04 2.9104930385739995e-05 1.8731263468743908e-04  5.5417908428937158e-02 8.1739702809605845e-04 -1.9423710918946607e-03  1.0474914329019677e-03 8.2698355309714688e-05 3.8776154549783205e-04  1.7158435423338000e-02 7.8528805930385759e-04 -6.2476929865850229e-04  1.2842822463903863e-03 6.2481357966818094e-05 3.1127685679083959e-04  1.5499858118182696e-02 4.2906037200282399e-04 -7.3328201226099401e-04  5.4064766455242741e-04 7.7165878596427556e-05 5.0078855671674123e-04  1.8322464901349235e-02 5.8632225981062583e-04 -8.1156323643690441e-04  -9.0612443017033546e-05 4.0275031564948615e-05 5.5034953334162531e-04  1.8150768666409342e-02 5.8597773420646830e-04 -4.0959120176356381e-04  -6.8451712291249761e-04 -1.0596522698986665e-05 4.9983626233038325e-04  1.7674450801375741e-02 6.0759742981551009e-04 2.0725458316925302e-04  -1.0520005042996955e-03 -6.8582138992708146e-05 3.8557623906286260e-04  1.6936798184391484e-02 5.8277567315228836e-04 5.4100144419579770e-04  -1.0633102301766694e-03 -1.1970592962310985e-04 2.6728834021820893e-04  1.6415463343457407e-02 5.1764944234887814e-04 4.5331848683909841e-04  -6.9024100469004086e-04 -1.3969155346476431e-04 1.7737991502133526e-04  1.6603707610344614e-02 4.6807957915762267e-04 5.2137641927101500e-05  -4.1205423960851681e-06 -1.0768576718435064e-04 1.0844906477027353e-04  1.7679385212905570e-02 5.0778431054694954e-04 -4.7570961782832295e-04  6.7627610241202999e-04 -4.0078505369101328e-05 6.4178809550253135e-05  1.8557330984290923e-02 9.0776524575746423e-04 -7.2703285086547808e-04  1.0083412457431793e-03 1.8386382906154795e-05 9.0290790009832161e-05  1.8032248649653124e-02 1.3003134971028248e-03 -1.0466391122804029e-03  1.2489049744269618e-03 3.3251117509381041e-05 5.4446125200930495e-05  1.4636991615518207e-03 2.5814453015059039e-05 2.5973780196466401e-04  1.4196786714110845e-03 4.2553810671566562e-05 7.2728558699674834e-05  1.6025309521316238e-03 6.0593051110459026e-05 2.3861495228786472e-04  7.8470949355878778e-04 -1.8931225036047965e-05 8.2139525276729848e-05  1.0966495430336559e-03 6.2199395271805255e-05 4.3710660092796742e-04  1.7288715653030915e-04 -8.5927261667887478e-05 1.1791296909467657e-04  4.8816937663811484e-04 3.5284818455105423e-05 6.0883377817265276e-04  -4.8707798464561600e-04 -1.4449256765303433e-04 1.2511825264910172e-04  -2.1889412078721481e-04 -7.7722215865590884e-06 6.7290296383106885e-04  -9.9430303460278438e-04 -1.8288262863500924e-04 9.0362348083659688e-05  -8.3049153592328236e-04 -5.4583648741999047e-05 6.1747980002247382e-04  -1.1744850718018594e-03 -2.0580420518524520e-04 5.1321361137175684e-05  -1.1588732426174562e-03 -1.1196247300950224e-04 5.0203786881882449e-04  -9.6282376992256388e-04 -2.0673312358505177e-04 3.8305770293640559e-05  -1.1059266761359891e-03 -1.5581248767820703e-04 3.7621740291805318e-04  -3.6714797641957168e-04 -1.6830257745025458e-04 4.9526386685014243e-05  -6.7176516053336877e-04 -1.4915083946485794e-04 2.6182196295196976e-04  5.3727878118818660e-04 -1.0687479204291242e-04 6.3265662061221884e-05  9.5015822166970258e-05 -8.6234765114256770e-05 1.5930516925385829e-04  1.0509206134161455e-03 1.4188196551668650e-06 4.4030079415212115e-06  6.0902656053443552e-04 -2.1675261246899489e-06 7.7214882223879775e-05  5.2042015001825773e-02 -2.3282258366147220e-04 -1.8281995371903696e-04  1.1442358711138134e-03 -6.3500785797383433e-05 3.8008794137035269e-04  1.3213706150940578e-03 -5.7241827032186885e-05 2.7510606981646891e-04  5.0247546201229454e-02 1.1908941320726694e-04 -1.0050564814278521e-03  5.3057541226186784e-02 -7.7447057134668478e-04 -1.3351340381868187e-04  7.4759748471180565e-04 -1.1548272055342144e-04 5.9499237985214228e-04  5.3134604857465267e-02 -6.3690477968826196e-04 7.4193278217524539e-05  2.2810283318465773e-04 -1.0259156588067676e-04 8.0570234881775879e-04  5.2999985787900106e-02 -3.8993907739366044e-04 3.4564366994955381e-04  -2.8551905067084960e-04 -4.9385227311409417e-05 9.8799451799758825e-04  5.2639761127045125e-02 -2.5518042536228471e-04 5.4351408663190080e-04  -6.8463852004879960e-04 6.2798921539254483e-05 1.1253019502111532e-03  5.2181079461940942e-02 -3.0040294043424894e-04 6.0939295881461521e-04  -9.0634028463079338e-04 2.1439375572681387e-04 1.2020833849530992e-03  5.1846055493638639e-02 -4.3391146268795835e-04 4.5556612796316764e-04  -9.0353081392395888e-04 2.7987105145221218e-04 1.2196480606573052e-03  5.1930114515317677e-02 -4.6820520326752881e-04 -3.8397142398406014e-04  -5.9782475843680267e-04 1.7393357715953851e-04 1.0326648050431992e-03  5.2515133312303126e-02 -2.9945305915582312e-04 -1.9476206019261382e-03  -4.5856505101309109e-05 6.1837030381244908e-05 3.2349387328596747e-04  5.2214729756337334e-02 -4.3341101936049408e-05 -8.8560858843657081e-04  2.0581845310341294e-04 6.5882411663417890e-05 4.1415017363773495e-04  1.1455706991405701e-01 -1.9585573975899339e-04 -4.1249532775043213e-04  1.1388165774214543e-01 -1.4594593497241400e-03 -1.4961304761889013e-03  1.1559301740561645e-01 -7.2319429604752257e-04 -6.4518715338830637e-04  1.1596198513539839e-01 -6.2933328303231442e-04 -4.2558079323122794e-04  1.1590447423809357e-01 -3.3386136377219078e-04 -6.1428888312452346e-05  1.1553986837355988e-01 -2.4978632370091449e-04 3.8823198006803422e-05  1.1515915089996798e-01 -4.3623163515174129e-04 -2.5152352845923701e-04  1.1512992514943091e-01 -6.7051320056099302e-04 -9.2807212444800783e-04  1.1568430545511126e-01 -5.6937623206949233e-04 -2.2422275387846175e-03  1.1644268135573639e-01 2.0115522078650787e-04 -3.9458997557633713e-03  1.1661108077687879e-01 -3.1610701961844526e-04 -3.0611060222126315e-03  1.3870913468618268e-01 -5.0687812598126545e-04 -1.0285756462806773e-03  1.3854474200687089e-01 -1.6415670260025031e-03 -2.4367636739626715e-03  1.3971993039358696e-01 -5.3031614338287737e-04 -1.4463793499730265e-03  1.4025613882588242e-01 -2.8076436909306191e-04 -1.1324686617561538e-03  1.4031564810503344e-01 1.0938813810310253e-04 -3.7517049458219310e-04  1.3986280072360605e-01 2.2568231936561807e-04 -1.7674563403317336e-04  1.3941762653651690e-01 2.6977577177918113e-05 -6.8162044295505661e-04  1.3952371266037172e-01 -1.7386645540899855e-04 -1.7056617053239152e-03  1.4039788509581180e-01 5.1717707928506153e-05 -3.2764796393971243e-03  1.4145654587280310e-01 1.0676795212302846e-03 -4.8523204397917371e-03  1.4153594159262783e-01 4.3352088593587328e-04 -4.3935733385444369e-03  1.1477910994261994e-01 -8.8176009509820046e-05 -1.7109648422952446e-03  1.1498953196350582e-01 -7.1562457171850087e-04 -3.2551875702651941e-03  1.1587455418339589e-01 -8.2225911351023462e-05 -2.1259278518302865e-03  1.1660358799581881e-01 2.2604771238294051e-04 -1.6065684914857246e-03  1.1672236085621251e-01 5.8264650377685880e-04 -2.9176437242715251e-04  1.1608560351115695e-01 6.7950634898468595e-04 7.4214885640382731e-05  1.1549008028918831e-01 5.3104983591167421e-04 -5.2419036355046773e-04  1.1561762681554730e-01 4.1283384728825890e-04 -1.6541567142313799e-03  1.1665571764886369e-01 6.8034313997848586e-04 -3.0697515796166567e-03  1.1781375396103035e-01 1.8944004699048857e-03 -4.2376473906937081e-03  1.1756143632523007e-01 1.3778634349799160e-03 -4.1128782883517673e-03  5.2361791487442057e-02 5.7760451942035613e-04 -1.0749013912667710e-03  5.2537063604756080e-02 1.8817706486764046e-04 -3.0572959670001252e-03  5.3435595170445938e-02 4.0223677703562485e-04 -1.2427163895617210e-03  5.3894201102027320e-02 5.8214686826682689e-04 -5.7188187373335758e-04  5.3700716055175970e-02 7.5453896226183913e-04 8.5723353782189888e-04  5.2705743082733035e-02 7.1609925590005851e-04 1.2503200435790172e-03  5.1873213421951093e-02 5.4324891239895519e-04 6.6442267463600517e-04  5.1894477714590562e-02 4.3053991911164960e-04 -3.5198064799707164e-04  5.3059153180714039e-02 5.2704169043924745e-04 -1.4568692029303782e-03  5.4207131878606964e-02 1.3042344468095339e-03 -2.1910699572515835e-03  5.2999303986166917e-02 1.9699789541205463e-03 -2.3850291034444174e-03  2.0040361609467349e-03 7.0881560405362308e-05 6.2415817258393866e-04  2.1576843650000926e-03 1.1107178142767346e-04 6.2648014761027991e-04  1.4759731085855388e-03 1.2277260109102260e-04 1.1637155893408106e-03  7.4751376838467598e-04 1.0049871860226181e-04 1.6462324098888575e-03  -1.7499989366001481e-04 2.9580893003760956e-05 1.8856866297986138e-03  -9.9259908126902606e-04 -5.2488968323667224e-05 1.7953614047164846e-03  -1.4106372471915142e-03 -1.7925723178976839e-04 1.5033398887021698e-03  -1.3434247230040383e-03 -2.9352535512709743e-04 1.1263472483448503e-03  -8.8355160201594404e-04 -3.2402355098942433e-04 7.6515078630200921e-04  -7.8101499278725531e-05 -2.4052752464406721e-04 4.4313588185131391e-04  4.6473999862129615e-04 -1.1629609266352263e-04 2.2537436187536431e-04  6.6328605534295634e-02 -5.3325232251044165e-04 -2.2929354281790850e-04  1.3893181714002747e-03 1.2029582214137798e-04 3.7826854894582322e-04  1.5903263112486889e-03 1.1230205998107136e-04 2.5895613637250039e-04  6.4539183022537833e-02 -1.3882760818687074e-04 -9.6510446498999686e-04  6.7438018573657485e-02 -1.1579952316408614e-03 5.5699184025105487e-05  9.7972419229180505e-04 1.2929589301811055e-04 5.9532362325823574e-04  6.7547404504116587e-02 -9.4634911515146538e-04 3.2468571912668990e-04  4.4597845202493423e-04 1.6216007997361259e-04 8.0845787099105397e-04  6.7456414678850260e-02 -4.8821875890407289e-04 5.6580992524375164e-04  -9.2169104833167258e-05 2.1695003851393153e-04 1.0003956904574079e-03  6.7024505563878206e-02 -2.3937447025408048e-04 6.6135110937352002e-04  -5.3498226778449232e-04 3.6516535011514486e-04 1.1609904664442808e-03  6.6285239123125089e-02 -3.7183400653715464e-04 6.5434558722757123e-04  -8.7478828544443994e-04 6.4541299993906530e-04 1.2688526265216087e-03  6.5317407562716243e-02 -8.5786961600091448e-04 7.7885647522479373e-04  -1.1275220692944237e-03 9.0456380386647582e-04 1.3627643604661082e-03  6.4645894292636522e-02 -1.3651734458871674e-03 9.4362339349926701e-04  -9.9118601736648978e-04 6.9812824941001338e-04 1.8195582030122986e-03  6.4672266671328513e-02 -1.6307624866630979e-03 -6.1524145651404313e-04  -4.8033178606054518e-04 2.7341775790491285e-04 8.0343817816411710e-04  6.3190238193949505e-02 -1.7656653882348427e-03 2.6216722843522993e-03  -4.3552034963762745e-04 2.1550288710778308e-04 4.8679119038445205e-04  1.3882258717078924e-01 -7.9418715669849155e-04 -7.1518894313903774e-04  1.3864725184059162e-01 -2.3756319392344207e-03 -1.6772504359595078e-03  1.3985480532517794e-01 -1.5047412212011832e-03 -5.0985604711950355e-04  1.4041547206137728e-01 -1.2992555866999133e-03 -1.6582288763465958e-04  1.4048239400503967e-01 -5.7303231109487676e-04 1.9649281336093962e-04  1.3991971197036246e-01 -3.4512858052135461e-04 1.3389927523436114e-04  1.3902874123170869e-01 -7.4451819723190887e-04 -4.1987633563625248e-04  1.3808494882802719e-01 -1.4704877372781074e-03 -1.1293736471724616e-03  1.3757603655642553e-01 -1.9639062123936119e-03 -1.9084830634348278e-03  1.3702943772445264e-01 -1.2957976471366234e-03 -4.1755565687092008e-03  1.3508635304027583e-01 -2.3981388019584148e-03 -1.7004364847484244e-03  1.6658470843298281e-01 -1.4471809559578599e-03 -1.6787648216540661e-03  1.6743052773567552e-01 -2.9259070513774914e-03 -2.9862222352705476e-03  1.6743717892333879e-01 -1.5082915122347168e-03 -1.5052270504248740e-03  1.6853754156299888e-01 -1.0372716359355928e-03 -9.4626481522380778e-04  1.6900493095006952e-01 3.9422867324105531e-05 7.0009706134128817e-05  1.6815658133367914e-01 3.1584938685682066e-04 7.9558751250399305e-05  1.6701170940148183e-01 -1.7820388966479833e-04 -9.3682804660176673e-04  1.6605461013449713e-01 -7.8343124886913397e-04 -2.3429720814245091e-03  1.6569944923762184e-01 -8.2652328269218933e-04 -3.9538140175362961e-03  1.6538155611947780e-01 3.9514400885135861e-04 -6.5626649770971933e-03  1.6323034433050071e-01 -6.5230448401113394e-04 -5.1316482855913222e-03  1.3896280593431765e-01 -8.4961014429302771e-04 -2.8544855224071570e-03  1.4072936872333069e-01 -1.8048603277321699e-03 -4.1757931869884149e-03  1.3994422305086573e-01 -8.7467651811934594e-04 -3.1309178481131244e-03  1.4152573987781811e-01 -2.5202631085650170e-04 -1.6076472711762223e-03  1.4255419522627732