<?xml version="1.0"?>
<VTKFile type="UnstructuredGrid"  version="0.1"  >
<UnstructuredGrid>
<Piece  NumberOfPoints="539" NumberOfCells="2160">
<Points>
<DataArray  type="Float64"  NumberOfComponents="3"  format="ascii">0 0.2 0.2  0.1 0.2 0.2  0.1 0.3 0.2  0.1 0.3 0.3  0.1 0.2 0.3  0 0.2 0.3  0 0.3 0.2  0 0.3 0.3  0.2 0.2 0.2  0.2 0.3 0.2  0.2 0.3 0.3  0.2 0.2 0.3  0.3 0.2 0.2  0.3 0.3 0.2  0.3 0.3 0.3  0.3 0.2 0.3  0.4 0.2 0.2  0.4 0.3 0.2  0.4 0.3 0.3  0.4 0.2 0.3  0.5 0.2 0.2  0.5 0.3 0.2  0.5 0.3 0.3  0.5 0.2 0.3  0.6 0.2 0.2  0.6 0.3 0.2  0.6 0.3 0.3  0.6 0.2 0.3  0.7 0.2 0.2  0.7 0.3 0.2  0.7 0.3 0.3  0.7 0.2 0.3  0.8 0.2 0.2  0.8 0.3 0.2  0.8 0.3 0.3  0.8 0.2 0.3  0.9 0.2 0.2  0.9 0.3 0.2  0.9 0.3 0.3  0.9 0.2 0.3  1 0.2 0.2  1 0.3 0.2  1 0.3 0.3  1 0.2 0.3  0.1 0.4 0.2  0.1 0.4 0.3  0 0.4 0.2  0 0.4 0.3  0.2 0.4 0.2  0.2 0.4 0.3  0.3 0.4 0.2  0.3 0.4 0.3  0.4 0.4 0.2  0.4 0.4 0.3  0.5 0.4 0.2  0.5 0.4 0.3  0.6 0.4 0.2  0.6 0.4 0.3  0.7 0.4 0.2  0.7 0.4 0.3  0.8 0.4 0.2  0.8 0.4 0.3  0.9 0.4 0.2  0.9 0.4 0.3  1 0.4 0.2  1 0.4 0.3  0.1 0.5 0.2  0.1 0.5 0.3  0 0.5 0.2  0 0.5 0.3  0.2 0.5 0.2  0.2 0.5 0.3  0.3 0.5 0.2  0.3 0.5 0.3  0.4 0.5 0.2  0.4 0.5 0.3  0.5 0.5 0.2  0.5 0.5 0.3  0.6 0.5 0.2  0.6 0.5 0.3  0.7 0.5 0.2  0.7 0.5 0.3  0.8 0.5 0.2  0.8 0.5 0.3  0.9 0.5 0.2  0.9 0.5 0.3  1 0.5 0.2  1 0.5 0.3  0.1 0.6 0.2  0.1 0.6 0.3  0 0.6 0.2  0 0.6 0.3  0.2 0.6 0.2  0.2 0.6 0.3  0.3 0.6 0.2  0.3 0.6 0.3  0.4 0.6 0.2  0.4 0.6 0.3  0.5 0.6 0.2  0.5 0.6 0.3  0.6 0.6 0.2  0.6 0.6 0.3  0.7 0.6 0.2  0.7 0.6 0.3  0.8 0.6 0.2  0.8 0.6 0.3  0.9 0.6 0.2  0.9 0.6 0.3  1 0.6 0.2  1 0.6 0.3  0.1 0.7 0.2  0.1 0.7 0.3  0 0.7 0.2  0 0.7 0.3  0.2 0.7 0.2  0.2 0.7 0.3  0.3 0.7 0.2  0.3 0.7 0.3  0.4 0.7 0.2  0.4 0.7 0.3  0.5 0.7 0.2  0.5 0.7 0.3  0.6 0.7 0.2  0.6 0.7 0.3  0.7 0.7 0.2  0.7 0.7 0.3  0.8 0.7 0.2  0.8 0.7 0.3  0.9 0.7 0.2  0.9 0.7 0.3  1 0.7 0.2  1 0.7 0.3  0.1 0.8 0.2  0.1 0.8 0.3  0 0.8 0.2  0 0.8 0.3  0.2 0.8 0.2  0.2 0.8 0.3  0.3 0.8 0.2  0.3 0.8 0.3  0.4 0.8 0.2  0.4 0.8 0.3  0.5 0.8 0.2  0.5 0.8 0.3  0.6 0.8 0.2  0.6 0.8 0.3  0.7 0.8 0.2  0.7 0.8 0.3  0.8 0.8 0.2  0.8 0.8 0.3  0.9 0.8 0.2  0.9 0.8 0.3  1 0.8 0.2  1 0.8 0.3  0.1 0.3 0.4  0.1 0.2 0.4  0 0.2 0.4  0 0.3 0.4  0.2 0.3 0.4  0.2 0.2 0.4  0.3 0.3 0.4  0.3 0.2 0.4  0.4 0.3 0.4  0.4 0.2 0.4  0.5 0.3 0.4  0.5 0.2 0.4  0.6 0.3 0.4  0.6 0.2 0.4  0.7 0.3 0.4  0.7 0.2 0.4  0.8 0.3 0.4  0.8 0.2 0.4  0.9 0.3 0.4  0.9 0.2 0.4  1 0.3 0.4  1 0.2 0.4  0.1 0.4 0.4  0 0.4 0.4  0.2 0.4 0.4  0.3 0.4 0.4  0.4 0.4 0.4  0.5 0.4 0.4  0.6 0.4 0.4  0.7 0.4 0.4  0.8 0.4 0.4  0.9 0.4 0.4  1 0.4 0.4  0.1 0.5 0.4  0 0.5 0.4  0.2 0.5 0.4  0.3 0.5 0.4  0.4 0.5 0.4  0.5 0.5 0.4  0.6 0.5 0.4  0.7 0.5 0.4  0.8 0.5 0.4  0.9 0.5 0.4  1 0.5 0.4  0.1 0.6 0.4  0 0.6 0.4  0.2 0.6 0.4  0.3 0.6 0.4  0.4 0.6 0.4  0.5 0.6 0.4  0.6 0.6 0.4  0.7 0.6 0.4  0.8 0.6 0.4  0.9 0.6 0.4  1 0.6 0.4  0.1 0.7 0.4  0 0.7 0.4  0.2 0.7 0.4  0.3 0.7 0.4  0.4 0.7 0.4  0.5 0.7 0.4  0.6 0.7 0.4  0.7 0.7 0.4  0.8 0.7 0.4  0.9 0.7 0.4  1 0.7 0.4  0.1 0.8 0.4  0 0.8 0.4  0.2 0.8 0.4  0.3 0.8 0.4  0.4 0.8 0.4  0.5 0.8 0.4  0.6 0.8 0.4  0.7 0.8 0.4  0.8 0.8 0.4  0.9 0.8 0.4  1 0.8 0.4  0.1 0.3 0.5  0.1 0.2 0.5  0 0.2 0.5  0 0.3 0.5  0.2 0.3 0.5  0.2 0.2 0.5  0.3 0.3 0.5  0.3 0.2 0.5  0.4 0.3 0.5  0.4 0.2 0.5  0.5 0.3 0.5  0.5 0.2 0.5  0.6 0.3 0.5  0.6 0.2 0.5  0.7 0.3 0.5  0.7 0.2 0.5  0.8 0.3 0.5  0.8 0.2 0.5  0.9 0.3 0.5  0.9 0.2 0.5  1 0.3 0.5  1 0.2 0.5  0.1 0.4 0.5  0 0.4 0.5  0.2 0.4 0.5  0.3 0.4 0.5  0.4 0.4 0.5  0.5 0.4 0.5  0.6 0.4 0.5  0.7 0.4 0.5  0.8 0.4 0.5  0.9 0.4 0.5  1 0.4 0.5  0.1 0.5 0.5  0 0.5 0.5  0.2 0.5 0.5  0.3 0.5 0.5  0.4 0.5 0.5  0.5 0.5 0.5  0.6 0.5 0.5  0.7 0.5 0.5  0.8 0.5 0.5  0.9 0.5 0.5  1 0.5 0.5  0.1 0.6 0.5  0 0.6 0.5  0.2 0.6 0.5  0.3 0.6 0.5  0.4 0.6 0.5  0.5 0.6 0.5  0.6 0.6 0.5  0.7 0.6 0.5  0.8 0.6 0.5  0.9 0.6 0.5  1 0.6 0.5  0.1 0.7 0.5  0 0.7 0.5  0.2 0.7 0.5  0.3 0.7 0.5  0.4 0.7 0.5  0.5 0.7 0.5  0.6 0.7 0.5  0.7 0.7 0.5  0.8 0.7 0.5  0.9 0.7 0.5  1 0.7 0.5  0.1 0.8 0.5  0 0.8 0.5  0.2 0.8 0.5  0.3 0.8 0.5  0.4 0.8 0.5  0.5 0.8 0.5  0.6 0.8 0.5  0.7 0.8 0.5  0.8 0.8 0.5  0.9 0.8 0.5  1 0.8 0.5  0.1 0.3 0.6  0.1 0.2 0.6  0 0.2 0.6  0 0.3 0.6  0.2 0.3 0.6  0.2 0.2 0.6  0.3 0.3 0.6  0.3 0.2 0.6  0.4 0.3 0.6  0.4 0.2 0.6  0.5 0.3 0.6  0.5 0.2 0.6  0.6 0.3 0.6  0.6 0.2 0.6  0.7 0.3 0.6  0.7 0.2 0.6  0.8 0.3 0.6  0.8 0.2 0.6  0.9 0.3 0.6  0.9 0.2 0.6  1 0.3 0.6  1 0.2 0.6  0.1 0.4 0.6  0 0.4 0.6  0.2 0.4 0.6  0.3 0.4 0.6  0.4 0.4 0.6  0.5 0.4 0.6  0.6 0.4 0.6  0.7 0.4 0.6  0.8 0.4 0.6  0.9 0.4 0.6  1 0.4 0.6  0.1 0.5 0.6  0 0.5 0.6  0.2 0.5 0.6  0.3 0.5 0.6  0.4 0.5 0.6  0.5 0.5 0.6  0.6 0.5 0.6  0.7 0.5 0.6  0.8 0.5 0.6  0.9 0.5 0.6  1 0.5 0.6  0.1 0.6 0.6  0 0.6 0.6  0.2 0.6 0.6  0.3 0.6 0.6  0.4 0.6 0.6  0.5 0.6 0.6  0.6 0.6 0.6  0.7 0.6 0.6  0.8 0.6 0.6  0.9 0.6 0.6  1 0.6 0.6  0.1 0.7 0.6  0 0.7 0.6  0.2 0.7 0.6  0.3 0.7 0.6  0.4 0.7 0.6  0.5 0.7 0.6  0.6 0.7 0.6  0.7 0.7 0.6  0.8 0.7 0.6  0.9 0.7 0.6  1 0.7 0.6  0.1 0.8 0.6  0 0.8 0.6  0.2 0.8 0.6  0.3 0.8 0.6  0.4 0.8 0.6  0.5 0.8 0.6  0.6 0.8 0.6  0.7 0.8 0.6  0.8 0.8 0.6  0.9 0.8 0.6  1 0.8 0.6  0.1 0.3 0.7  0.1 0.2 0.7  0 0.2 0.7  0 0.3 0.7  0.2 0.3 0.7  0.2 0.2 0.7  0.3 0.3 0.7  0.3 0.2 0.7  0.4 0.3 0.7  0.4 0.2 0.7  0.5 0.3 0.7  0.5 0.2 0.7  0.6 0.3 0.7  0.6 0.2 0.7  0.7 0.3 0.7  0.7 0.2 0.7  0.8 0.3 0.7  0.8 0.2 0.7  0.9 0.3 0.7  0.9 0.2 0.7  1 0.3 0.7  1 0.2 0.7  0.1 0.4 0.7  0 0.4 0.7  0.2 0.4 0.7  0.3 0.4 0.7  0.4 0.4 0.7  0.5 0.4 0.7  0.6 0.4 0.7  0.7 0.4 0.7  0.8 0.4 0.7  0.9 0.4 0.7  1 0.4 0.7  0.1 0.5 0.7  0 0.5 0.7  0.2 0.5 0.7  0.3 0.5 0.7  0.4 0.5 0.7  0.5 0.5 0.7  0.6 0.5 0.7  0.7 0.5 0.7  0.8 0.5 0.7  0.9 0.5 0.7  1 0.5 0.7  0.1 0.6 0.7  0 0.6 0.7  0.2 0.6 0.7  0.3 0.6 0.7  0.4 0.6 0.7  0.5 0.6 0.7  0.6 0.6 0.7  0.7 0.6 0.7  0.8 0.6 0.7  0.9 0.6 0.7  1 0.6 0.7  0.1 0.7 0.7  0 0.7 0.7  0.2 0.7 0.7  0.3 0.7 0.7  0.4 0.7 0.7  0.5 0.7 0.7  0.6 0.7 0.7  0.7 0.7 0.7  0.8 0.7 0.7  0.9 0.7 0.7  1 0.7 0.7  0.1 0.8 0.7  0 0.8 0.7  0.2 0.8 0.7  0.3 0.8 0.7  0.4 0.8 0.7  0.5 0.8 0.7  0.6 0.8 0.7  0.7 0.8 0.7  0.8 0.8 0.7  0.9 0.8 0.7  1 0.8 0.7  0.1 0.3 0.8  0.1 0.2 0.8  0 0.2 0.8  0 0.3 0.8  0.2 0.3 0.8  0.2 0.2 0.8  0.3 0.3 0.8  0.3 0.2 0.8  0.4 0.3 0.8  0.4 0.2 0.8  0.5 0.3 0.8  0.5 0.2 0.8  0.6 0.3 0.8  0.6 0.2 0.8  0.7 0.3 0.8  0.7 0.2 0.8  0.8 0.3 0.8  0.8 0.2 0.8  0.9 0.3 0.8  0.9 0.2 0.8  1 0.3 0.8  1 0.2 0.8  0.1 0.4 0.8  0 0.4 0.8  0.2 0.4 0.8  0.3 0.4 0.8  0.4 0.4 0.8  0.5 0.4 0.8  0.6 0.4 0.8  0.7 0.4 0.8  0.8 0.4 0.8  0.9 0.4 0.8  1 0.4 0.8  0.1 0.5 0.8  0 0.5 0.8  0.2 0.5 0.8  0.3 0.5 0.8  0.4 0.5 0.8  0.5 0.5 0.8  0.6 0.5 0.8  0.7 0.5 0.8  0.8 0.5 0.8  0.9 0.5 0.8  1 0.5 0.8  0.1 0.6 0.8  0 0.6 0.8  0.2 0.6 0.8  0.3 0.6 0.8  0.4 0.6 0.8  0.5 0.6 0.8  0.6 0.6 0.8  0.7 0.6 0.8  0.8 0.6 0.8  0.9 0.6 0.8  1 0.6 0.8  0.1 0.7 0.8  0 0.7 0.8  0.2 0.7 0.8  0.3 0.7 0.8  0.4 0.7 0.8  0.5 0.7 0.8  0.6 0.7 0.8  0.7 0.7 0.8  0.8 0.7 0.8  0.9 0.7 0.8  1 0.7 0.8  0.1 0.8 0.8  0 0.8 0.8  0.2 0.8 0.8  0.3 0.8 0.8  0.4 0.8 0.8  0.5 0.8 0.8  0.6 0.8 0.8  0.7 0.8 0.8  0.8 0.8 0.8  0.9 0.8 0.8  1 0.8 0.8  </DataArray>
</Points>
<Cells>
[...]
<PointData  Vectors="f_23"> 
<DataArray  type="Float64"  Name="f_23"  NumberOfComponents="3" format="ascii">2.2898152480458579e-03 -5.5666189014289279e-05 -1.2714942343666741e-04  2.1610983379083460e-03 -8.8092617236374353e-05 -1.4308033468094048e-04  2.1869168583667285e-03 -8.4298454426957894e-05 -1.5002048416819829e-04  1.3285562435150489e-01 2.4471933006253508e-05 1.8648067052719073e-04  2.2493777496578340e-03 -8.4951512628599583e-05 -4.3859016345925306e-05  2.3401157162149348e-03 -7.1448035507602905e-05 -2.5850736752329356e-05  2.2913770784520073e-03 -5.1699485196362960e-05 -1.4087959514657905e-04  1.3244454671990671e-01 1.2834390888725072e-05 1.2662654353245298e-04  1.8295057629256878e-03 -1.2256309984093891e-04 -1.3848788928051486e-04  1.8815503811649033e-03 -1.2535348120379906e-04 -1.7899863751346588e-04  1.3304841602637360e-01 6.8874909533301395e-05 1.4741111511596715e-04  1.9968099623573752e-03 -1.3060139410160429e-04 -6.9233631282684702e-06  1.3614757895062900e-03 -1.6219641011336775e-04 -4.7165804506982998e-05  1.4489244904953760e-03 -1.6553583580593335e-04 -1.2090838800694702e-04  1.3289307919585636e-01 1.2002409945751658e-04 2.2995624042018760e-04  1.6084098151302822e-03 -1.8024295233957553e-04 1.2208949055838154e-04  6.9454987054690370e-04 -2.0012302847279250e-04 1.2542292756528530e-04  8.3139380193571742e-04 -1.9861855643279376e-04 1.7124048491249225e-05  1.3268114516993834e-01 1.9883591851951638e-04 3.1844636047252884e-04  1.0207560886108180e-03 -2.3428817962672244e-04 3.4907947022323282e-04  -1.9965255600864516e-04 -2.2220563094019238e-04 3.4663167824693086e-04  -4.8825462361939983e-06 -2.1697839782651646e-04 2.1132464982147380e-04  1.3240380150106715e-01 3.0316356093137108e-04 3.7604521597563612e-04  1.6053674569641821e-04 -2.7866559765343021e-04 6.5532264574014100e-04  -1.2486294245637685e-03 -2.1237516604324756e-04 5.2614178164246792e-04  -1.0138911592610881e-03 -2.1139239240150940e-04 3.9457776562386635e-04  1.3204254785800715e-01 4.1208315474527458e-04 3.8385715059676730e-04  -9.6525480315065050e-04 -2.8163614122514338e-04 9.4415876132217713e-04  -2.2200695822750744e-03 -1.7919879610775647e-04 5.3153213481604942e-04  -2.0015884191966682e-03 -1.8241355202493737e-04 4.4963527743881643e-04  1.3156829070747184e-01 4.7403460998890419e-04 3.8221940937947546e-04  -2.1427970246117515e-03 -2.2789659663152413e-04 1.0133489505030693e-03  -2.7909110554242057e-03 -1.4965368036274962e-04 3.3291910303431523e-04  -2.6477810352208285e-03 -1.4352016545779071e-04 3.1259608369916896e-04  1.3086859974625376e-01 4.6654338089924111e-04 5.6898324211103392e-04  -2.9670560565696188e-03 -1.6697620102391189e-04 6.9857132093198123e-04  -2.9657683552072652e-03 -4.9641463415978105e-05 1.2325199468799560e-04  -2.8722492237997516e-03 -7.1923514968187920e-05 1.3494632643447290e-04  1.2964720487005990e-01 4.5591380876958327e-04 1.0572211723656976e-03  -3.2208059388879038e-03 -7.2819926533572056e-05 2.8718101129569736e-04  -2.9639524066736294e-03 -1.0301045030205596e-04 1.9989500562568680e-04  -2.8677371458972370e-03 -9.8626350421688900e-05 1.7136658901914037e-04  1.2762013790427684e-01 3.3446117538869742e-04 7.8162469022183950e-04  -3.1742719668026581e-03 -1.2435583550925730e-04 3.3149421938160814e-04  2.1363978485540161e-03 -9.9327681073383515e-05 -1.5204701397143630e-04  1.6436942942003835e-01 1.0719481484484705e-04 1.7810595715040173e-04  2.2404578949612062e-03 -7.0834710332420278e-05 -1.3601194400007899e-04  1.6444818066621944e-01 3.9441983559183877e-05 2.5152771447407830e-04  1.8403719423870587e-03 -1.5480876136000104e-04 -1.8810813940891405e-04  1.6457974966473587e-01 1.3240973046121831e-04 1.3713405354798377e-04  1.4238468575133159e-03 -2.0047604049785821e-04 -1.4090689451193189e-04  1.6450582328964039e-01 1.8152283119880373e-04 2.2623344527976339e-04  8.2496807114239832e-04 -2.2919732997138783e-04 -1.7978242432397541e-05  1.6445372112389503e-01 2.6809708801252583e-04 3.1878038549993716e-04  1.2906700050033458e-05 -2.3553387149020626e-04 1.5994982734074189e-04  1.6439753657971515e-01 3.8535013486231301e-04 3.9127526434859879e-04  -9.7279779838916973e-04 -2.1378162634444107e-04 3.3651828978261317e-04  1.6427475321567966e-01 5.1064423135335736e-04 4.4889022994840409e-04  -1.9538472814687748e-03 -1.6596349035870027e-04 4.0488822345585978e-04  1.6398058556215553e-01 5.9388044375836206e-04 5.3157536045103692e-04  -2.6000573951470330e-03 -1.1110978250634228e-04 2.9559616150851454e-04  1.6339562078653819e-01 5.8853688013668875e-04 7.8063171186847416e-04  -2.7781323557881815e-03 -6.3752355181419563e-05 1.2596896259682911e-04  1.6229346501442213e-01 5.0468431987708558e-04 1.2919531833478332e-03  -2.7390991743684069e-03 -8.0921769415821766e-05 1.7227036592400676e-04  1.5993720434147110e-01 6.4304763859319547e-04 8.6721460784957183e-04  2.0692936044759548e-03 -1.1558360684776942e-04 -1.3703776651734879e-04  1.7042921731553889e-01 9.6197663112893006e-05 1.4765317884300063e-04  2.1709143258983265e-03 -8.8829687449360024e-05 -1.1735014326070529e-04  1.7049566572531910e-01 2.2829676162422336e-05 2.2938473238078195e-04  1.7855998782507138e-03 -1.8318942586202343e-04 -1.7093395802565104e-04  1.7066824273563549e-01 7.5222928824465236e-05 1.0458402328765331e-04  1.3890378410707507e-03 -2.3439426126281506e-04 -1.2909884839673664e-04  1.7063691648522503e-01 9.1589810075870539e-05 1.9138762361415758e-04  8.1507794438054999e-04 -2.6188376127480223e-04 -1.8492147922704015e-05  1.7066205074069091e-01 1.4179993262738874e-04 2.8955213046821744e-04  3.4085042973394709e-05 -2.5993581954690580e-04 1.4288240736353759e-04  1.7070345073624729e-01 2.2229954839816016e-04 3.8592432106504499e-04  -9.2104099696962885e-04 -2.2173119797021370e-04 3.0483945373505674e-04  1.7066263434479081e-01 3.2717530564990575e-04 4.9765340458062131e-04  -1.8894128195116361e-03 -1.4768168468151205e-04 3.7449225892543825e-04  1.7039695278106998e-01 4.3349785991101005e-04 6.7957256046368287e-04  -2.5485942703597549e-03 -6.3518809127812668e-05 2.8258029018550550e-04  1.6978084367303392e-01 4.9407190574953593e-04 9.9859137767696897e-04  -2.7147486020732458e-03 -3.4291779196138317e-05 1.2213805071725078e-04  1.6863498175766192e-01 4.5270200736905055e-04 1.4823325897336715e-03  -2.6782764180208478e-03 -2.3470068730233731e-05 1.8038127302398075e-04  1.6618241489910976e-01 5.8157727297927016e-04 1.1279672845373938e-03  1.9923560434638487e-03 -1.2396404461836728e-04 -1.1287853272401575e-04  1.6410299219822491e-01 4.8336526351453118e-05 1.1000174140065358e-04  2.0886855687369541e-03 -9.4109632721703647e-05 -9.2944560753363309e-05  1.6398792263933387e-01 -5.5320518489068885e-05 1.6338942461120780e-04  1.7261370488752782e-03 -2.0505967339347041e-04 -1.4169987091823940e-04  1.6434563299438870e-01 -1.5223526194157404e-05 8.9640544542905344e-05  1.3525113807141094e-03 -2.6570798271869153e-04 -1.0562510094008517e-04  1.6427569874705292e-01 -3.0735315642744455e-05 1.7954532692225736e-04  8.0845731662202726e-04 -3.0081368856116705e-04 -1.0349946108198938e-05  1.6424977427745979e-01 -2.9560978238379774e-05 2.8358859233878293e-04  6.4301104118541608e-05 -3.0338355121724590e-04 1.2908991796180537e-04  1.6423376483792729e-01 -9.7771348126866824e-06 3.9495681928557760e-04  -8.5169130996641106e-04 -2.6501225510808056e-04 2.7148058759114349e-04  1.6412603695283606e-01 3.8429984632778131e-05 5.4130268717857946e-04  -1.7959779962752507e-03 -1.8261045184941589e-04 3.3948161761973708e-04  1.6377907261760871e-01 1.2462942074029670e-04 7.7571241989439824e-04  -2.4761779420827100e-03 -7.4387004327637821e-05 2.6008239082807099e-04  1.6308202051883652e-01 2.1843950515569344e-04 1.0863862999530081e-03  -2.6781465028697781e-03 -2.0115038605417118e-05 1.1606058755796246e-04  1.6189281210730613e-01 2.3238239170497561e-04 1.5096578017877731e-03  -2.6703669464974186e-03 1.3986834348423424e-05 1.7205824400425154e-04  1.5970015265764048e-01 3.5594794293292414e-04 1.1741227729178101e-03  1.9235615242495711e-03 -1.1554120836525349e-04 -9.1754316823841836e-05  1.3205905366414300e-01 -4.3578890925035029e-05 -3.7570229461218628e-06  2.0235878481613544e-03 -7.3520980929632607e-05 -7.2385430102292803e-05  1.3155681619129053e-01 -3.6311677094498301e-04 -5.6396426327147928e-05  1.6770896199660432e-03 -2.0627511373720597e-04 -1.1439425092977630e-04  1.3213373745137699e-01 -9.5433504053802501e-05 5.1169211492727564e-05  1.3277548149379366e-03 -2.7846496234214225e-04 -8.6877790370563988e-05  1.3188413059783330e-01 -1.4849756111673360e-04 1.4739089172858999e-04  8.1693698892321154e-04 -3.2710700813136682e-04 -8.1232421644476794e-06  1.3163078348909854e-01 -2.0679088364647900e-04 2.6470623599113453e-04  1.1363469769863585e-04 -3.4456144534522978e-04 1.0950800156515784e-04  1.3133298082260267e-01 -2.5941594293448265e-04 4.0115006754510370e-04  -7.6121523555416979e-04 -3.2211260660422344e-04 2.3355540939967091e-04  1.3092772219621238e-01 -2.8885792387457309e-04 5.6970830852067173e-04  -1.6766116729816035e-03 -2.5456882053913864e-04 2.9963009316638531e-04  1.3034266128028271e-01 -2.6103494290208702e-04 7.6457899710567019e-04  -2.3501043054601095e-03 -1.5164472155342979e-04 2.3913366761587219e-04  1.2953568387051087e-01 -1.6442040224723639e-04 9.6119511792407001e-04  -2.6156389089924980e-03 -5.6422633800841680e-05 1.0492525076243174e-04  1.2840134528822045e-01 -1.2626994234677175e-04 1.1604347038231618e-03  -2.6496217433091352e-03 -1.1004365093895466e-05 1.4537580201731904e-04  1.2686069649524354e-01 1.0117353747185726e-04 6.8995422754139740e-04  2.0221456929861935e-03 -1.0386695418368154e-04 -1.1848208411645526e-04  2.0501768520306040e-03 -7.4320305505681591e-05 -6.4278864523391525e-05  2.1540283621661505e-03 -1.0345808675149970e-04 -6.1639543125746672e-05  2.1183550678009894e-03 -7.7851790719362692e-05 -4.3662531965474935e-05  1.7937086767886772e-03 -1.9439625022298608e-04 -1.7885554610329681e-04  1.9372019884968837e-03 -1.6352819398371087e-04 -1.0526240319361282e-04  1.4930231479857912e-03 -2.7282554140480345e-04 -1.9754757120194288e-04  1.6682253213543749e-03 -2.4664703071507898e-04 -9.0651817173954531e-05  1.0482636853832864e-03 -3.3167632726068788e-04 -1.6902912866128384e-04  1.2780195570618862e-03 -3.1230645214230254e-04 -2.7879226492682992e-05  4.1567944749768042e-04 -3.6305526654499185e-04 -9.8928651905233584e-05  7.1730088980026269e-04 -3.5150721434738357e-04 8.0721200901689072e-05  -4.0959017423506815e-04 -3.5825071062255484e-04 1.8848360940672544e-06  -4.7461779944762649e-05 -3.5505368609991210e-04 2.1995765173619245e-04  -1.3539533465716659e-03 -3.0974303822911201e-04 1.0090614749496032e-04  -9.8386148115003425e-04 -3.1351704903582144e-04 3.4347678825133595e-04  -2.1988523638054674e-03 -2.1844363743926042e-04 1.4437639954622010e-04  -1.9271001758063046e-03 -2.2442414139361413e-04 3.7529147272354931e-04  -2.5681664036076280e-03 -1.0624781217882363e-04 1.0894719365795724e-04  -2.5160919847720289e-03 -1.1631105104458985e-04 2.6845419261265304e-04  -2.6161992940658572e-03 -3.6693593705958700e-05 1.1335070030456914e-04  -2.7043047958981753e-03 -2.8256566228391125e-05 1.8598242125121336e-04  1.6445599894352822e-01 -5.1372375260013129e-05 3.5426951812460181e-04  2.2868210263594455e-03 -1.0433990812791501e-04 6.1634129408177303e-05  2.3574738235042406e-03 -8.4394914572462053e-05 4.1307964152105758e-05  1.6461178184959013e-01 -5.8493112876565141e-06 2.1063736143047129e-05  1.6464402144944176e-01 4.8485101796885416e-05 2.6290283552742201e-04  2.1149617774121146e-03 -1.6484059094567499e-04 1.5472148322912070e-04  1.6459300423472861e-01 1.4979379113911164e-04 3.0015441351491254e-04  1.8318807423027921e-03 -2.3365229448423140e-04 3.3789533414867412e-04  1.6451297202522366e-01 2.9132087416590787e-04 3.5226015095455232e-04  1.3527920725649671e-03 -3.1906976917780397e-04 6.4567195025661201e-04  1.6442386246310736e-01 4.9321670398240784e-04 3.5149727236577684e-04  5.4737729422114250e-04 -4.1393460486228024e-04 1.0930369842250816e-03  1.6433864024650160e-01 7.5254333363072650e-04 2.4965639480200674e-04  -6.9294334927785860e-04 -4.7304659016025326e-04 1.6200501955569672e-03  1.6428985808428950e-01 9.8212953073261605e-04 8.6163718781824501e-05  -2.2349204150343741e-03 -4.1039049855453555e-04 1.9422999073106816e-03  1.6414235640614952e-01 1.0655882828937561e-03 2.2539931901698401e-04  -3.4636220533540239e-03 -2.5140999727900018e-04 1.5250146131540790e-03  1.6331528895510503e-01 1.1187793838843792e-03 1.0006966250181088e-03  -3.9305604344323109e-03 -1.1238746017547500e-04 6.4334210743648308e-04  1.6239180969417738e-01 4.8587810084466934e-04 -5.9553566011150757e-04  -3.9228413020096792e-03 -1.3081120005821022e-04 7.0004896184990581e-04  2.1122327252116088e-01 1.4487806058112866e-04 4.5651735881139626e-04  2.1122027570008009e-01 7.4067154228433824e-05 1.6539564465724250e-04  2.1142493959488048e-01 1.7590208128859573e-04 2.6491262657241159e-04  2.1155887684437474e-01 2.7541574966488393e-04 2.6771837220050421e-04  2.1176668047555416e-01 4.4303653473717490e-04 2.9689227406675713e-04  2.1208931265582215e-01 6.8684727485084399e-04 3.0050681769355222e-04  2.1249457104089731e-01 1.0045233784757249e-03 2.8245597722652250e-04  2.1287125990511263e-01 1.3345854820792070e-03 3.2235270267904405e-04  2.1299516754058517e-01 1.5028326952416118e-03 7.3884481297987418e-04  2.1260977781383353e-01 1.3373735012257894e-03 1.7778087970757714e-03  2.1176205267317089e-01 1.4585813559718792e-03 3.0322209788641460e-04  2.2090402508132956e-01 1.4363945535954931e-04 4.2529221638782467e-04  2.2075994327537959e-01 8.5963043195067128e-05 1.5760017395503094e-04  2.2116039007045601e-01 1.2555400914627117e-04 2.1024530301350612e-04  2.2137449683022398e-01 1.6713110873137454e-04 2.0827463961599181e-04  2.2171932326486943e-01 2.6547793023747165e-04 2.4939275606964838e-04  2.2223173782145805e-01 4.2531578444830986e-04 3.0622853643140621e-04  2.2285318819532990e-01 6.6172106999842859e-04 4.2293202573039416e-04  2.2337178772849361e-01 9.6085789063535233e-04 6.9944995972682209e-04  2.2349520678995852e-01 1.2018440457790026e-03 1.4308536654705189e-03  2.2302698707498592e-01 1.1539905676026898e-03 2.5706806561286680e-03  2.2218518836210835e-01 1.3871020726939054e-03 1.3924691880599087e-03  2.1110078289526182e-01 5.5299247404392939e-05 3.8194982872913889e-04  2.1074742457970494e-01 -2.7785415676582980e-05 1.2404502168642811e-04  2.1134402842481406e-01 -7.2749057179037967e-06 1.9353464732498770e-04  2.1149280697301040e-01 -2.2841187257481121e-05 2.1293403912791311e-04  2.1175239684336364e-01 -1.7490925949003707e-05 2.8233248905953619e-04  2.1216679945491063e-01 1.6698514347798936e-05 3.8232967137338071e-04  2.1267594902727191e-01 1.0915085973692820e-04 5.7539732895681367e-04  2.1304444001167885e-01 2.8214230821005333e-04 1.0047509307529914e-03  2.1296310880043159e-01 5.1068748407424153e-04 1.8983075334547167e-03  2.1231446353475247e-01 6.1816921252755329e-04 2.8270176972732906e-03  2.1170996447664120e-01 9.5167315041931122e-04 1.8973296228981765e-03  1.6432158081413195e-01 -6.5863368032376130e-05 2.8435707302895420e-04  1.6367035427227961e-01 -3.6753044829669482e-04 9.8056675165970086e-06  1.6435331532230585e-01 -1.1240751380073356e-04 1.9677697302328921e-04  1.6424294219575150e-01 -1.7154349895563356e-04 2.6132603059840005e-04  1.6415115613344275e-01 -2.4511353828328728e-04 3.8260229071042536e-04  1.6409482565484068e-01 -3.1762461277769384e-04 5.4511613924558870e-04  1.6402947718313260e-01 -3.5733984221947925e-04 7.8478976852753765e-04  1.6385790448234569e-01 -3.2231410318842523e-04 1.1876055050961463e-03  1.6337501579175573e-01 -1.5311807959446266e-04 1.6541969969045272e-03  1.6245044530317068e-01 -2.5497546565189013e-05 2.1392558392281146e-03  1.6238203438883395e-01 4.8430033789756405e-04 1.2129382622333867e-03  2.0288350326935541e-03 -6.0055466150133346e-05 1.0339690891920113e-05  2.0892798773581413e-03 -6.4759804725509612e-05 -6.6841822617903394e-07  1.9308475550158560e-03 -1.3308035619978689e-04 5.1431630665111630e-06  1.7313171987424663e-03 -2.1370185824897493e-04 6.3529701017835802e-05  1.4029868611896525e-03 -2.8588527802180202e-04 1.8448411024509141e-04  8.9708184152189295e-04 -3.4013629818848128e-04 3.6871370885270359e-04  1.6028034597700776e-04 -3.6618341022477311e-04 5.9843729579877355e-04  -8.2156468471421631e-04 -3.5051075843929640e-04 8.0771095728862901e-04  -1.9247900023216804e-03 -2.7441002848433018e-04 8.6258064012217570e-04  -2.7334415774211808e-03 -1.5076788609193523e-04 6.4454980110462069e-04  -2.9758768686880478e-03 -6.1132876165578387e-05 5.0795695098237645e-04  1.7061598440508105e-01 -4.7263000952427954e-05 3.0482653920907687e-04  2.3571784856966900e-03 -1.1641649802409968e-04 7.1582851518027334e-05  2.4070293453995460e-03 -8.8544081622322140e-05 4.4501680693375201e-05  1.7077339058096477e-01 -2.3190249484539385e-06 5.7960285636205097e-06  1.7081691316771533e-01 6.0427957958497598e-05 2.3299589490503950e-04  2.2498497602040685e-03 -1.8768088640529527e-04 1.6372656673519509e-04  1.7080778678805617e-01 1.8544199240200308e-04 2.4307234445087399e-04  2.0842807640398943e-03 -2.7165514860147719e-04 3.3475313374681806e-04  1.7077969884765862e-01 3.7446378234431076e-04 2.8103670004243019e-04  1.7668443494679293e-03 -3.8318712203352635e-04 6.3763536575358703e-04  1.7076392589372283e-01 6.8369250515330413e-04 2.8020309797207877e-04  1.1329298722495744e-03 -5.3134491099847176e-04 1.1359331207163625e-03  1.7083254660670130e-01 1.1889794054928988e-03 1.1945236904491651e-04  -9.5561855393144977e-05 -6.9765596637298504e-04 1.8887555067139106e-03  1.7109629510240121e-01 1.9086857087671886e-03 -4.1927561669962310e-04  -2.1173785901679835e-03 -7.6681847601408053e-04 2.7817807170898634e-03  1.7145391549571762e-01 2.4679827723826284e-03 -1.3019234756764470e-03  -4.1768140938331384e-03 -5.0328357128101553e-04 3.0112142044148547e-03  1.7109414183313551e-01 2.9909469337311288e-03 -1.4208476487342799e-03  -5.2030276223101841e-03 -2.1975090793944753e-04 1.2538331209605877e-03  1.7096328645022457e-01 2.4887896261248199e-03 -5.3761708380230958e-03  -5.5494955034201951e-03 -1.5334433194334122e-04 1.4912419554960728e-03  2.2100263866011577e-01 1.4767814537801384e-04 3.9335108386258426e-04  2.2086843427214792e-01 8.1361497222784846e-05 1.3206832579325777e-04  2.2124234834404499e-01 1.8465452611771227e-04 2.2880324135815153e-04  2.2144688721220018e-01 3.2224947399526658e-04 1.7314742261704687e-04  2.2177363992507193e-01 5.6125197592414165e-04 1.5914218140138030e-04  2.2231004702045956e-01 9.5208324515574374e-04 1.4433270034009947e-04  2.2314234721162682e-01 1.5801312219934458e-03 8.8801946374062211e-05  2.2424824539588001e-01 2.4814054517823246e-03 -1.3887285244573841e-04  2.2533393686306843e-01 3.3754014502067127e-03 -5.2151008707216229e-04  2.2633362828488274e-01 3.5072853703508287e-03 7.9703945236487883e-05  2.2741563680794685e-01 4.0682284429870352e-03 -3.2599396781446601e-03  2.3175982232246764e-01 1.5005991879403312e-04 3.9294649122185489e-04  2.3143098163964318e-01 9.7676718283687132e-05 1.4493946231913229e-04  2.3206617912866176e-01 1.2389264204281422e-04 1.9607932350945817e-04  2.3238283502866003e-01 1.8245283464768931e-04 1.3113323415596580e-04  2.3289280837830600e-01 3.1734731086887789e-04 1.3007976709117824e-04  2.3371209316510277e-01 5.5546162346101473e-04 1.8505419946313696e-04  2.3492230046780177e-01 9.7094032489259384e-04 3.3366098593025519e-04  2.3647523030510328e-01 1.6354049954906598e-03 5.5699684527259186e-04  2.3787592159710763e-01 2.4049579556849072e-03 9.1607693045650442e-04  2.3895145045867641e-01 2.5325072950525421e-03 2.1578700401170227e-03  2.4015236085668351e-01 3.1769836872752115e-03 -2.5576047135230078e-04  2.2100750500018443e-01 4.4762856709154982e-05 3.9547355901400617e-04  2.2048460651582574e-01 -2.3006107742360955e-05 1.6484031215851467e-04  2.2129440325466831e-01 -2.3654746028755520e-05 2.1926014396348611e-04  2.2154403241758641e-01 -4.9942493178992833e-05 1.8804873126005786e-04  2.2196063105057429e-01 -5.1570575529319646e-05 2.3307628290584516e-04  2.2268731