<?xml version="1.0"?>
<VTKFile type="UnstructuredGrid"  version="0.1"  >
<UnstructuredGrid>
<Piece  NumberOfPoints="539" NumberOfCells="2160">
<Points>
<DataArray  type="Float64"  NumberOfComponents="3"  format="ascii">0 0.2 0.2  0.1 0.2 0.2  0.1 0.3 0.2  0.1 0.3 0.3  0.1 0.2 0.3  0 0.2 0.3  0 0.3 0.2  0 0.3 0.3  0.2 0.2 0.2  0.2 0.3 0.2  0.2 0.3 0.3  0.2 0.2 0.3  0.3 0.2 0.2  0.3 0.3 0.2  0.3 0.3 0.3  0.3 0.2 0.3  0.4 0.2 0.2  0.4 0.3 0.2  0.4 0.3 0.3  0.4 0.2 0.3  0.5 0.2 0.2  0.5 0.3 0.2  0.5 0.3 0.3  0.5 0.2 0.3  0.6 0.2 0.2  0.6 0.3 0.2  0.6 0.3 0.3  0.6 0.2 0.3  0.7 0.2 0.2  0.7 0.3 0.2  0.7 0.3 0.3  0.7 0.2 0.3  0.8 0.2 0.2  0.8 0.3 0.2  0.8 0.3 0.3  0.8 0.2 0.3  0.9 0.2 0.2  0.9 0.3 0.2  0.9 0.3 0.3  0.9 0.2 0.3  1 0.2 0.2  1 0.3 0.2  1 0.3 0.3  1 0.2 0.3  0.1 0.4 0.2  0.1 0.4 0.3  0 0.4 0.2  0 0.4 0.3  0.2 0.4 0.2  0.2 0.4 0.3  0.3 0.4 0.2  0.3 0.4 0.3  0.4 0.4 0.2  0.4 0.4 0.3  0.5 0.4 0.2  0.5 0.4 0.3  0.6 0.4 0.2  0.6 0.4 0.3  0.7 0.4 0.2  0.7 0.4 0.3  0.8 0.4 0.2  0.8 0.4 0.3  0.9 0.4 0.2  0.9 0.4 0.3  1 0.4 0.2  1 0.4 0.3  0.1 0.5 0.2  0.1 0.5 0.3  0 0.5 0.2  0 0.5 0.3  0.2 0.5 0.2  0.2 0.5 0.3  0.3 0.5 0.2  0.3 0.5 0.3  0.4 0.5 0.2  0.4 0.5 0.3  0.5 0.5 0.2  0.5 0.5 0.3  0.6 0.5 0.2  0.6 0.5 0.3  0.7 0.5 0.2  0.7 0.5 0.3  0.8 0.5 0.2  0.8 0.5 0.3  0.9 0.5 0.2  0.9 0.5 0.3  1 0.5 0.2  1 0.5 0.3  0.1 0.6 0.2  0.1 0.6 0.3  0 0.6 0.2  0 0.6 0.3  0.2 0.6 0.2  0.2 0.6 0.3  0.3 0.6 0.2  0.3 0.6 0.3  0.4 0.6 0.2  0.4 0.6 0.3  0.5 0.6 0.2  0.5 0.6 0.3  0.6 0.6 0.2  0.6 0.6 0.3  0.7 0.6 0.2  0.7 0.6 0.3  0.8 0.6 0.2  0.8 0.6 0.3  0.9 0.6 0.2  0.9 0.6 0.3  1 0.6 0.2  1 0.6 0.3  0.1 0.7 0.2  0.1 0.7 0.3  0 0.7 0.2  0 0.7 0.3  0.2 0.7 0.2  0.2 0.7 0.3  0.3 0.7 0.2  0.3 0.7 0.3  0.4 0.7 0.2  0.4 0.7 0.3  0.5 0.7 0.2  0.5 0.7 0.3  0.6 0.7 0.2  0.6 0.7 0.3  0.7 0.7 0.2  0.7 0.7 0.3  0.8 0.7 0.2  0.8 0.7 0.3  0.9 0.7 0.2  0.9 0.7 0.3  1 0.7 0.2  1 0.7 0.3  0.1 0.8 0.2  0.1 0.8 0.3  0 0.8 0.2  0 0.8 0.3  0.2 0.8 0.2  0.2 0.8 0.3  0.3 0.8 0.2  0.3 0.8 0.3  0.4 0.8 0.2  0.4 0.8 0.3  0.5 0.8 0.2  0.5 0.8 0.3  0.6 0.8 0.2  0.6 0.8 0.3  0.7 0.8 0.2  0.7 0.8 0.3  0.8 0.8 0.2  0.8 0.8 0.3  0.9 0.8 0.2  0.9 0.8 0.3  1 0.8 0.2  1 0.8 0.3  0.1 0.3 0.4  0.1 0.2 0.4  0 0.2 0.4  0 0.3 0.4  0.2 0.3 0.4  0.2 0.2 0.4  0.3 0.3 0.4  0.3 0.2 0.4  0.4 0.3 0.4  0.4 0.2 0.4  0.5 0.3 0.4  0.5 0.2 0.4  0.6 0.3 0.4  0.6 0.2 0.4  0.7 0.3 0.4  0.7 0.2 0.4  0.8 0.3 0.4  0.8 0.2 0.4  0.9 0.3 0.4  0.9 0.2 0.4  1 0.3 0.4  1 0.2 0.4  0.1 0.4 0.4  0 0.4 0.4  0.2 0.4 0.4  0.3 0.4 0.4  0.4 0.4 0.4  0.5 0.4 0.4  0.6 0.4 0.4  0.7 0.4 0.4  0.8 0.4 0.4  0.9 0.4 0.4  1 0.4 0.4  0.1 0.5 0.4  0 0.5 0.4  0.2 0.5 0.4  0.3 0.5 0.4  0.4 0.5 0.4  0.5 0.5 0.4  0.6 0.5 0.4  0.7 0.5 0.4  0.8 0.5 0.4  0.9 0.5 0.4  1 0.5 0.4  0.1 0.6 0.4  0 0.6 0.4  0.2 0.6 0.4  0.3 0.6 0.4  0.4 0.6 0.4  0.5 0.6 0.4  0.6 0.6 0.4  0.7 0.6 0.4  0.8 0.6 0.4  0.9 0.6 0.4  1 0.6 0.4  0.1 0.7 0.4  0 0.7 0.4  0.2 0.7 0.4  0.3 0.7 0.4  0.4 0.7 0.4  0.5 0.7 0.4  0.6 0.7 0.4  0.7 0.7 0.4  0.8 0.7 0.4  0.9 0.7 0.4  1 0.7 0.4  0.1 0.8 0.4  0 0.8 0.4  0.2 0.8 0.4  0.3 0.8 0.4  0.4 0.8 0.4  0.5 0.8 0.4  0.6 0.8 0.4  0.7 0.8 0.4  0.8 0.8 0.4  0.9 0.8 0.4  1 0.8 0.4  0.1 0.3 0.5  0.1 0.2 0.5  0 0.2 0.5  0 0.3 0.5  0.2 0.3 0.5  0.2 0.2 0.5  0.3 0.3 0.5  0.3 0.2 0.5  0.4 0.3 0.5  0.4 0.2 0.5  0.5 0.3 0.5  0.5 0.2 0.5  0.6 0.3 0.5  0.6 0.2 0.5  0.7 0.3 0.5  0.7 0.2 0.5  0.8 0.3 0.5  0.8 0.2 0.5  0.9 0.3 0.5  0.9 0.2 0.5  1 0.3 0.5  1 0.2 0.5  0.1 0.4 0.5  0 0.4 0.5  0.2 0.4 0.5  0.3 0.4 0.5  0.4 0.4 0.5  0.5 0.4 0.5  0.6 0.4 0.5  0.7 0.4 0.5  0.8 0.4 0.5  0.9 0.4 0.5  1 0.4 0.5  0.1 0.5 0.5  0 0.5 0.5  0.2 0.5 0.5  0.3 0.5 0.5  0.4 0.5 0.5  0.5 0.5 0.5  0.6 0.5 0.5  0.7 0.5 0.5  0.8 0.5 0.5  0.9 0.5 0.5  1 0.5 0.5  0.1 0.6 0.5  0 0.6 0.5  0.2 0.6 0.5  0.3 0.6 0.5  0.4 0.6 0.5  0.5 0.6 0.5  0.6 0.6 0.5  0.7 0.6 0.5  0.8 0.6 0.5  0.9 0.6 0.5  1 0.6 0.5  0.1 0.7 0.5  0 0.7 0.5  0.2 0.7 0.5  0.3 0.7 0.5  0.4 0.7 0.5  0.5 0.7 0.5  0.6 0.7 0.5  0.7 0.7 0.5  0.8 0.7 0.5  0.9 0.7 0.5  1 0.7 0.5  0.1 0.8 0.5  0 0.8 0.5  0.2 0.8 0.5  0.3 0.8 0.5  0.4 0.8 0.5  0.5 0.8 0.5  0.6 0.8 0.5  0.7 0.8 0.5  0.8 0.8 0.5  0.9 0.8 0.5  1 0.8 0.5  0.1 0.3 0.6  0.1 0.2 0.6  0 0.2 0.6  0 0.3 0.6  0.2 0.3 0.6  0.2 0.2 0.6  0.3 0.3 0.6  0.3 0.2 0.6  0.4 0.3 0.6  0.4 0.2 0.6  0.5 0.3 0.6  0.5 0.2 0.6  0.6 0.3 0.6  0.6 0.2 0.6  0.7 0.3 0.6  0.7 0.2 0.6  0.8 0.3 0.6  0.8 0.2 0.6  0.9 0.3 0.6  0.9 0.2 0.6  1 0.3 0.6  1 0.2 0.6  0.1 0.4 0.6  0 0.4 0.6  0.2 0.4 0.6  0.3 0.4 0.6  0.4 0.4 0.6  0.5 0.4 0.6  0.6 0.4 0.6  0.7 0.4 0.6  0.8 0.4 0.6  0.9 0.4 0.6  1 0.4 0.6  0.1 0.5 0.6  0 0.5 0.6  0.2 0.5 0.6  0.3 0.5 0.6  0.4 0.5 0.6  0.5 0.5 0.6  0.6 0.5 0.6  0.7 0.5 0.6  0.8 0.5 0.6  0.9 0.5 0.6  1 0.5 0.6  0.1 0.6 0.6  0 0.6 0.6  0.2 0.6 0.6  0.3 0.6 0.6  0.4 0.6 0.6  0.5 0.6 0.6  0.6 0.6 0.6  0.7 0.6 0.6  0.8 0.6 0.6  0.9 0.6 0.6  1 0.6 0.6  0.1 0.7 0.6  0 0.7 0.6  0.2 0.7 0.6  0.3 0.7 0.6  0.4 0.7 0.6  0.5 0.7 0.6  0.6 0.7 0.6  0.7 0.7 0.6  0.8 0.7 0.6  0.9 0.7 0.6  1 0.7 0.6  0.1 0.8 0.6  0 0.8 0.6  0.2 0.8 0.6  0.3 0.8 0.6  0.4 0.8 0.6  0.5 0.8 0.6  0.6 0.8 0.6  0.7 0.8 0.6  0.8 0.8 0.6  0.9 0.8 0.6  1 0.8 0.6  0.1 0.3 0.7  0.1 0.2 0.7  0 0.2 0.7  0 0.3 0.7  0.2 0.3 0.7  0.2 0.2 0.7  0.3 0.3 0.7  0.3 0.2 0.7  0.4 0.3 0.7  0.4 0.2 0.7  0.5 0.3 0.7  0.5 0.2 0.7  0.6 0.3 0.7  0.6 0.2 0.7  0.7 0.3 0.7  0.7 0.2 0.7  0.8 0.3 0.7  0.8 0.2 0.7  0.9 0.3 0.7  0.9 0.2 0.7  1 0.3 0.7  1 0.2 0.7  0.1 0.4 0.7  0 0.4 0.7  0.2 0.4 0.7  0.3 0.4 0.7  0.4 0.4 0.7  0.5 0.4 0.7  0.6 0.4 0.7  0.7 0.4 0.7  0.8 0.4 0.7  0.9 0.4 0.7  1 0.4 0.7  0.1 0.5 0.7  0 0.5 0.7  0.2 0.5 0.7  0.3 0.5 0.7  0.4 0.5 0.7  0.5 0.5 0.7  0.6 0.5 0.7  0.7 0.5 0.7  0.8 0.5 0.7  0.9 0.5 0.7  1 0.5 0.7  0.1 0.6 0.7  0 0.6 0.7  0.2 0.6 0.7  0.3 0.6 0.7  0.4 0.6 0.7  0.5 0.6 0.7  0.6 0.6 0.7  0.7 0.6 0.7  0.8 0.6 0.7  0.9 0.6 0.7  1 0.6 0.7  0.1 0.7 0.7  0 0.7 0.7  0.2 0.7 0.7  0.3 0.7 0.7  0.4 0.7 0.7  0.5 0.7 0.7  0.6 0.7 0.7  0.7 0.7 0.7  0.8 0.7 0.7  0.9 0.7 0.7  1 0.7 0.7  0.1 0.8 0.7  0 0.8 0.7  0.2 0.8 0.7  0.3 0.8 0.7  0.4 0.8 0.7  0.5 0.8 0.7  0.6 0.8 0.7  0.7 0.8 0.7  0.8 0.8 0.7  0.9 0.8 0.7  1 0.8 0.7  0.1 0.3 0.8  0.1 0.2 0.8  0 0.2 0.8  0 0.3 0.8  0.2 0.3 0.8  0.2 0.2 0.8  0.3 0.3 0.8  0.3 0.2 0.8  0.4 0.3 0.8  0.4 0.2 0.8  0.5 0.3 0.8  0.5 0.2 0.8  0.6 0.3 0.8  0.6 0.2 0.8  0.7 0.3 0.8  0.7 0.2 0.8  0.8 0.3 0.8  0.8 0.2 0.8  0.9 0.3 0.8  0.9 0.2 0.8  1 0.3 0.8  1 0.2 0.8  0.1 0.4 0.8  0 0.4 0.8  0.2 0.4 0.8  0.3 0.4 0.8  0.4 0.4 0.8  0.5 0.4 0.8  0.6 0.4 0.8  0.7 0.4 0.8  0.8 0.4 0.8  0.9 0.4 0.8  1 0.4 0.8  0.1 0.5 0.8  0 0.5 0.8  0.2 0.5 0.8  0.3 0.5 0.8  0.4 0.5 0.8  0.5 0.5 0.8  0.6 0.5 0.8  0.7 0.5 0.8  0.8 0.5 0.8  0.9 0.5 0.8  1 0.5 0.8  0.1 0.6 0.8  0 0.6 0.8  0.2 0.6 0.8  0.3 0.6 0.8  0.4 0.6 0.8  0.5 0.6 0.8  0.6 0.6 0.8  0.7 0.6 0.8  0.8 0.6 0.8  0.9 0.6 0.8  1 0.6 0.8  0.1 0.7 0.8  0 0.7 0.8  0.2 0.7 0.8  0.3 0.7 0.8  0.4 0.7 0.8  0.5 0.7 0.8  0.6 0.7 0.8  0.7 0.7 0.8  0.8 0.7 0.8  0.9 0.7 0.8  1 0.7 0.8  0.1 0.8 0.8  0 0.8 0.8  0.2 0.8 0.8  0.3 0.8 0.8  0.4 0.8 0.8  0.5 0.8 0.8  0.6 0.8 0.8  0.7 0.8 0.8  0.8 0.8 0.8  0.9 0.8 0.8  1 0.8 0.8  </DataArray>
</Points>
<Cells>
[...]
<PointData  Vectors="f_23"> 
<DataArray  type="Float64"  Name="f_23"  NumberOfComponents="3" format="ascii">7.0951309268961829e-04 9.6346736995816441e-05 -1.2611080465562312e-05  6.5321782413139517e-04 1.3312266848540519e-04 -1.7647743390327773e-05  6.9831482464087946e-04 9.8177080849953379e-05 -1.2595250188176686e-05  7.2670158534645174e-02 2.0076045794283854e-04 4.4049832004798632e-04  6.5721977663525894e-04 1.2703683289852442e-04 -1.3378726164206011e-05  7.0144969299238671e-04 8.7930653777052521e-05 -6.4934980677015428e-06  7.5051119546822422e-04 6.9000401442586879e-05 -1.1974909802634044e-05  7.2159071928624585e-02 4.9116106972177224e-04 9.8788986123035747e-04  5.5680841667701082e-04 2.0251895042673650e-04 -2.7016005864923622e-05  6.0564170139107637e-04 1.5764741721093663e-04 -1.9038924184514314e-05  7.2140774429684015e-02 5.2733197425314532e-05 2.3504581592971485e-04  5.7370133571525868e-04 2.0442900609476901e-04 -2.2529178537431110e-05  4.2540430809900691e-04 2.5954377768256488e-04 -3.6575578964688252e-05  4.7830550030375182e-04 2.0547164889491709e-04 -2.1760932727235263e-05  7.2093396092296633e-02 -3.8322245440541911e-05 2.9120937209024789e-04  4.5317979633548963e-04 2.8135921175194097e-04 -3.3131337521674995e-05  2.5266195829889596e-04 2.9526066954786359e-04 -3.8072420572375053e-05  3.0700865405988671e-04 2.3764238350832469e-04 -1.7965534830424910e-05  7.1918938798727725e-02 -1.3544483398048333e-04 4.3611226918804750e-04  2.9907536855072530e-04 3.4655353363763738e-04 -3.8991165305426601e-05  2.1108150166232783e-05 2.9493870977268118e-04 -1.6550342551641687e-05  7.4631654567623951e-05 2.4430432166748468e-04 2.3291747042987979e-06  7.1619731404598014e-02 -2.6084836498385476e-04 6.2714991795198420e-04  9.6689842988428962e-05 3.8045035812457785e-04 -2.3894969033153929e-05  -2.8736475400501529e-04 2.4967906929649941e-04 3.4971995034349195e-05  -2.3519483558159468e-04 2.1728831450322427e-04 4.3390079503084396e-05  7.1248499611073338e-02 -3.8272958741250118e-04 7.9030734101957442e-04  -1.8149617787921183e-04 3.5616418977000756e-04 3.1442908932430266e-05  -6.5231698225095940e-04 1.7045284632305591e-04 8.3359939217029588e-05  -6.0698880430891833e-04 1.5951077791348983e-04 8.1143368558237469e-05  7.1026735803741983e-02 -4.5872463106642897e-04 7.4378478648343366e-04  -5.4457522653977570e-04 2.6496913862059232e-04 1.0948634862423398e-04  -9.5653426180065981e-04 8.5009808373656627e-05 7.2608290658309670e-05  -9.4206087763164595e-04 9.0530963789012644e-05 7.0399614979780141e-05  7.1536659274964956e-02 -4.5526207383278966e-04 1.7916467931145707e-04  -9.1055803822768155e-04 1.3703518389262520e-04 1.0758134076845147e-04  -1.0906173660843624e-03 2.9161173142584265e-05 1.9046093235002916e-05  -1.1065661905897966e-03 3.3138055805236903e-05 3.7328521691049300e-05  7.3306415137205316e-02 -2.7830757419624664e-04 -5.4111923289013812e-04  -1.1145130904794194e-03 5.8322888854355070e-05 3.1665481616081017e-05  -1.1513446529479220e-03 4.1871687837802916e-05 5.5152210261659263e-05  -1.1499057158555154e-03 2.8094235489544652e-05 5.3724192830120513e-05  7.5235941873363119e-02 2.4940742553540774e-04 9.7783527118345680e-04  -1.1795180513395054e-03 4.4618458270987942e-05 5.6372916369478578e-05  7.5165150688764264e-04 6.3410917496026329e-05 -8.8065394305064583e-06  1.1349836761177493e-01 -8.9879086013070443e-05 4.4346042840062071e-04  8.0550701455344104e-04 4.4503978348494954e-05 -9.1791967553034033e-06  1.1274772511523855e-01 5.0917138808237298e-04 1.1141016195763162e-03  6.4873391425567602e-04 1.0304382841827840e-04 -9.0527585472889336e-06  1.1303912640827966e-01 -1.1899758615897856e-04 2.2072510909876169e-04  5.1197771656539680e-04 1.3537317090881921e-04 -3.8354005621630452e-06  1.1292974687745660e-01 -1.6036706049745759e-04 2.3293139704801328e-04  3.2469391446524802e-04 1.5558510962213821e-04 1.0160302000009975e-05  1.1278751393347768e-01 -2.2970416508447079e-04 2.9859674268212190e-04  7.0271054618487974e-05 1.5791833195592811e-04 3.8231694835878620e-05  1.1258704173859217e-01 -3.1554923727747814e-04 3.5098389956955082e-04  -2.6257424274328685e-04 1.3960727228795841e-04 7.8334037975884630e-05  1.1242427915899753e-01 -3.6637485202778279e-04 3.1272837575323063e-04  -6.5116761101461176e-04 1.0500937382441623e-04 1.0555781657941696e-04  1.1252435652971962e-01 -3.1093147586763270e-04 5.5778754974023484e-05  -9.9156969088189822e-04 6.4677999999874117e-05 8.2983063500180904e-05  1.1323557035174722e-01 -1.1669924656787743e-04 -5.0222177895436668e-04  -1.1517507451300078e-03 2.6927474970838090e-05 4.4656309008662443e-05  1.1473392878989067e-01 1.7017952439554864e-04 -7.7936232559219255e-04  -1.1896466859843322e-03 2.0008899302005624e-05 6.4915568100376242e-05  1.1663800667448766e-01 9.0876849347001708e-05 9.9675438050694136e-04  7.8513510282652904e-04 3.6214600492116571e-05 -5.1865747959874106e-06  1.2420339468144570e-01 -6.0852659856980965e-05 3.9772228997277776e-04  8.4007841840462406e-04 2.3499796889249419e-05 -6.3104106948224874e-06  1.2350510456435154e-01 3.6265255185526308e-04 1.0920179929466162e-03  6.7645246439001561e-04 6.0421301283137988e-05 -3.3036881915072676e-06  1.2378898271773878e-01 -1.4161512486531478e-04 1.7448356912476963e-04  5.3137906086145846e-04 7.9603175571392470e-05 5.5146358619797411e-06  1.2366392583768744e-01 -1.5380919505948677e-04 1.7760893566288950e-04  3.3091253163179614e-04 8.9086987702344101e-05 2.3900730576404977e-05  1.2349970054795691e-01 -1.7490938290979028e-04 2.1818260925637940e-04  6.1161518355557119e-05 8.4750780101663131e-05 5.4729154254567375e-05  1.2331587843756753e-01 -1.9948312704484673e-04 2.3013544887536252e-04  -2.8393202828926208e-04 6.7465326261108508e-05 9.3242135870913464e-05  1.2324135674524198e-01 -1.8824618576577677e-04 1.4494455948256145e-04  -6.7780577593704754e-04 4.6043185249139243e-05 1.1563234798107108e-04  1.2350580020858266e-01 -8.7794010051973353e-05 -1.3730552718254691e-04  -1.0180659970150227e-03 3.0907151451702315e-05 8.8647636519025700e-05  1.2433916229224547e-01 1.1589995187472098e-04 -6.1992466187400135e-04  -1.1784133569891246e-03 1.3122353455796818e-05 4.7788450803679316e-05  1.2567612688859006e-01 3.1759231143844378e-04 -6.6758764689932629e-04  -1.2171860192663646e-03 1.5644357054259221e-05 6.7902758227974129e-05  1.2742533419066740e-01 1.1731255384248398e-04 8.7539496068590890e-04  8.0546946925218893e-04 1.7035818726427249e-05 -2.1277128189275452e-06  1.1343466673108206e-01 -7.0031347499407200e-05 3.4442565167583350e-04  8.5853135842331864e-04 5.0800283481981900e-06 -2.6595545663003677e-06  1.1283407358537434e-01 2.0321487886016206e-04 1.0130755923521667e-03  6.9563656376150061e-04 3.1408912820603367e-05 -5.4867365375843189e-07  1.1305955596570709e-01 -1.1801615030407779e-04 1.5089723802751126e-04  5.4508983022519167e-04 4.4708235045539875e-05 7.6439240545530659e-06  1.1294536597928205e-01 -1.0045298476022132e-04 1.5178384538116560e-04  3.3433366266955614e-04 5.1143557259292796e-05 2.5457342059596882e-05  1.1278468298064688e-01 -8.1210624558082528e-05 1.8434896296409798e-04  5.3253277944895323e-05 4.6689253397669140e-05 5.3899923200558393e-05  1.1261388284298854e-01 -5.9631435548279184e-05 1.8773617670048411e-04  -2.9800872699497545e-04 3.2704236749957093e-05 8.7141716150080086e-05  1.1257510071875765e-01 -1.6673095966144012e-05 1.0209798467322110e-04  -6.8944310501780877e-04 1.8606625570783998e-05 1.0528754416728150e-04  1.1288006644784455e-01 6.8412771751438670e-05 -1.5047594297848182e-04  -1.0250595229696633e-03 1.6110040419928729e-05 8.0235265194226910e-05  1.1367995890200260e-01 1.8824496959029454e-04 -5.2419468013596303e-04  -1.1895329951001883e-03 5.0891398505797251e-06 4.3388182204960787e-05  1.1480808815750447e-01 2.3161495586552543e-04 -4.4780278837312483e-04  -1.2341716252829084e-03 1.8334003308199635e-05 5.9806169833019538e-05  1.1615688372503485e-01 7.2780403727111412e-05 8.3873346318607601e-04  8.2252793704813763e-04 2.3783804702416772e-06 -3.1724811871911129e-07  7.3465388549975211e-02 -6.1497450811700942e-05 2.7124373439191388e-04  8.6946163881648189e-04 -2.1108769001001875e-06 1.3004509616548471e-06  7.3549354217989069e-02 3.2405887300213332e-04 8.1431098505804799e-04  7.1907203574924001e-04 1.2714899133927396e-05 -1.2079430966134655e-06  7.3155706917820418e-02 -4.7537394533373869e-05 1.2309957073362892e-04  5.6980876066168239e-04 2.7591230473178513e-05 1.4895119869099232e-06  7.3091541907998867e-02 2.3587624495797725e-05 1.2011622880784709e-04  3.5525373041845758e-04 3.9473800903080197e-05 1.4101447989113849e-05  7.2995629677363630e-02 8.7990119688732222e-05 1.4243827230816058e-04  6.8015147923283911e-05 4.2829691486582511e-05 3.6818471077354011e-05  7.2879432853523649e-02 1.5490881696020412e-04 1.3818482551161289e-04  -2.8884425166771294e-04 3.7668610616691771e-05 6.3657583858290752e-05  7.2844161927388754e-02 2.2517672580743371e-04 6.2551691251465781e-05  -6.8268005282187954e-04 2.9871926820030444e-05 7.9166033988691399e-05  7.3041585099543907e-02 2.8982800797210285e-04 -1.2909782876939052e-04  -1.0216551956886894e-03 2.7071556246660680e-05 6.2542914005974054e-05  7.3596637301868689e-02 3.3165238963590697e-04 -3.6950452614545565e-04  -1.1943394929116913e-03 2.0341537178195623e-05 3.3229580857931805e-05  7.4488821797650637e-02 3.4791924262555439e-04 -2.6383310974593217e-04  -1.2444660462434828e-03 2.6076015856816791e-05 4.1817151934973110e-05  7.4898556250292125e-02 5.5575223832291083e-05 8.3474652830458230e-04  8.5656763821922500e-04 -9.7642355230385081e-07 -7.1473884352973503e-07  8.6919532109799153e-04 8.3032168507602746e-07 -5.8960382144964630e-07  8.9613527789603219e-04 -8.1590796241302679e-06 2.1308365681147629e-06  8.9634970769192585e-04 -5.5525254396294474e-06 1.1840133698945872e-06  7.6962933105306753e-04 9.5572386153783075e-06 -4.8531475032197316e-06  8.0636291159406719e-04 4.3868383675778781e-06 -2.5964972675007155e-06  6.4158533398943199e-04 2.2810625409419003e-05 -4.6505502725947552e-06  6.9558711144570673e-04 1.9797598837230705e-05 -2.6877681091856643e-06  4.5573833000350160e-04 3.6342246952061446e-05 -3.1497527866059008e-06  5.3419685386309798e-04 3.4951528015474942e-05 4.4835221354963298e-06  1.9808892847686616e-04 4.3528837352572237e-05 5.7819941677420750e-06  3.0753620587782679e-04 4.3626865267203961e-05 2.2770199326471565e-05  -1.3598860303876310e-04 4.2591396936933795e-05 2.2221853002131202e-05  5.8621574345166223e-06 4.3112971317445058e-05 5.0854129886552615e-05  -5.3134418071910776e-04 3.6492507701849165e-05 4.0900486461066448e-05  -3.6859601253019623e-04 3.6739076057032995e-05 7.9276058497820877e-05  -9.2037183477136977e-04 2.6572287459905227e-05 4.9712162500644310e-05  -7.7486650398993261e-04 3.2027128874894016e-05 8.8276992618578471e-05  -1.1643289034017703e-03 2.0824158575850570e-05 3.4252674102729959e-05  -1.0829094018086937e-03 2.6157407194531986e-05 6.2847196862989157e-05  -1.2375675892535537e-03 2.8231566356749121e-05 2.3258310542784979e-05  -1.2022013908922166e-03 3.2286559336880871e-05 4.2943755562288027e-05  1.1359510333779754e-01 1.7794692748437872e-04 2.2787631437727677e-04  6.5458342161092524e-04 1.2590842116160479e-04 -1.5897578379333827e-06  6.9880111746966104e-04 8.4812571321576447e-05 1.7604589844596958e-06  1.1294004111725379e-01 4.9870785827776888e-04 9.8222398070883505e-04  1.1320323491412353e-01 5.7865787680413850e-05 1.5649346156403551e-04  5.7244500143299542e-04 2.1342537146776602e-04 -3.6214883559118091e-06  1.1320249577509262e-01 -4.0798478831746150e-05 2.9201742175842088e-04  4.5428317454507651e-04 3.1389893178292145e-04 -6.0124041157487500e-06  1.1313688567763715e-01 -1.5228064383311581e-04 5.2246369240163497e-04  3.0436220519999266e-04 4.2568270631248114e-04 -6.9747949312530393e-06  1.1292643310201216e-01 -3.2343090762656271e-04 8.3245100464771765e-04  1.1367962178104670e-04 5.3031464001829470e-04 4.1221045771271759e-06  1.1251016745150140e-01 -5.4396744647134808e-04 1.1412919811763507e-03  -1.4541086233563652e-04 5.7440185457405225e-04 6.0412881041887501e-05  1.1190632150547566e-01 -6.7468872357625458e-04 1.1619652607514543e-03  -5.0548687383648655e-04 4.8912450122853693e-04 1.9118006144758405e-04  1.1197300102969233e-01 -6.9837167662743533e-04 4.3196321278048453e-04  -9.0096452590982803e-04 2.7707490466231629e-04 2.4448124166569793e-04  1.1447547041732162e-01 -5.7730256571526242e-04 -9.3813626935158228e-04  -1.1705374943100345e-03 1.1475662056033306e-04 4.4738398417003800e-05  1.1694553431475355e-01 2.7170527965975229e-04 1.7727059363607271e-03  -1.2915245218823083e-03 7.9341686382801939e-05 6.9688648090761884e-05  1.7700309858614777e-01 -1.3635933370864125e-04 2.4652802282327342e-04  1.7664511726942675e-01 5.4712265256320804e-04 1.1251308170058180e-03  1.7667955673558688e-01 -1.3685485446235837e-04 1.6961986399978142e-04  1.7652056144593445e-01 -1.9713232277139691e-04 2.8013723532894315e-04  1.7643126901211253e-01 -3.1354433232508565e-04 4.2716350073712845e-04  1.7629460763554819e-01 -4.8818704219996597e-04 5.4730520732834578e-04  1.7611087222169530e-01 -6.6223750218977185e-04 5.1955170093341346e-04  1.7606192782044219e-01 -6.6006882878248175e-04 1.0032397456412182e-04  1.7674975094222856e-01 -2.9623256112055617e-04 -9.4287901211138664e-04  1.7885844979275844e-01 3.3537669680820648e-04 -1.7575554592496477e-03  1.8141133211968219e-01 1.6891527489704949e-05 1.2856605093262427e-03  1.9451881886581854e-01 -6.1867920257829340e-05 2.1578451449354779e-04  1.9425538476537935e-01 3.9931938747833612e-04 1.1183046090715188e-03  1.9423963132867669e-01 -1.5052494073631298e-04 1.4327370380234368e-04  1.9405737791843647e-01 -1.7490591927062931e-04 2.3725309310205172e-04  1.9393156181161217e-01 -2.2550430880997346e-04 3.4523259238602473e-04  1.9379355446374927e-01 -3.0429152619764274e-04 4.0147363082214567e-04  1.9369730934236407e-01 -3.5820632948319427e-04 3.0289700937682624e-04  1.9390024186124016e-01 -2.6785114055136541e-04 -1.3985939092641355e-04  1.9492697737902920e-01 9.2249880092666839e-05 -1.0737111896750998e-03  1.9693148979167488e-01 6.1927619491596855e-04 -1.5610768625328544e-03  1.9917314819847298e-01 1.8794956287441266e-04 9.5067008643784031e-04  1.7690940922653542e-01 -5.6588709424055221e-05 1.7407801122567868e-04  1.7676610067321794e-01 2.2898330506452953e-04 1.0415950829004495e-03  1.7665920653734046e-01 -1.1779703847010647e-04 1.2025193228441115e-04  1.7649620759226703e-01 -1.0566824076479018e-04 2.0386279218678703e-04  1.7636938370443267e-01 -1.0014243321396468e-04 2.9345412544462676e-04  1.7623517067902958e-01 -1.0687886488217743e-04 3.3364940851095460e-04  1.7617398204582774e-01 -9.5030575457785566e-05 2.3932111220152563e-04  1.7646408603259223e-01 -2.9624530195890377e-06 -1.3506276247693890e-04  1.7751897311311593e-01 2.2521455682976432e-04 -8.8368813839236201e-04  1.7924180220661734e-01 4.6936914387640062e-04 -1.0836676602497734e-03  1.8071039354522217e-01 1.1128545110981716e-04 9.2968106573695810e-04  1.1356276162405635e-01 -2.0817542020018140e-05 8.7695055527178104e-05  1.1413078057450714e-01 3.6354269853191196e-04 8.3855713462066062e-04  1.1335887943892263e-01 -3.4094647257793108e-05 6.7149007963618904e-05  1.1326095372768129e-01 2.9857964971229217e-05 1.3584544517983321e-04  1.1319761205284669e-01 9.3238431764258885e-05 2.0146404699697518e-04  1.1312372837010023e-01 1.4947247640161639e-04 2.2786448008216137e-04  1.1307758808746832e-01 2.0621419546632753e-04 1.5028468120577483e-04  1.1325492191287635e-01 2.7420626149460091e-04 -1.3675524447791200e-04  1.1399783691529002e-01 3.6111078668815211e-04 -6.2617678428280405e-04  1.1533242902929847e-01 4.6505663211946239e-04 -5.7628772914537416e-04  1.1542956531152518e-01 1.1837105958915129e-04 1.0686830568750337e-03  8.7108145793179795e-04 3.3094031574400437e-06 -4.7734006229417901e-07  8.9622965124273553e-04 -4.8502555310266956e-07 1.2667144854036404e-06  8.1027995287600728e-04 8.1577017143334412e-06 1.3387831398251621e-06  7.0758421893957462e-04 2.1293514179096769e-05 9.4299041896544905e-06  5.6078006598616367e-04 3.2439804141098679e-05 2.8809824201144977e-05  3.5164511264382806e-04 3.7704297383078392e-05 6.5454868829171951e-05  6.3324183063001368e-05 3.3292350094971851e-05 1.1947151245215372e-04  -3.1684607509570680e-04 2.1737623602983202e-05 1.7651266907523129e-04  -7.6328870946666195e-04 1.2921372734880467e-05 1.9976280498271880e-04  -1.1257881985444051e-03 8.5252164174913230e-06 1.5181761834699486e-04  -1.2606702076463638e-03 1.6826631705916158e-05 1.1910874090842279e-04  1.2438492704000065e-01 1.5944175513924562e-04 1.6292139112987679e-04  6.6148601228512862e-04 1.1787238438678576e-04 1.2538574441054077e-05  7.0530786692039882e-04 7.7184869536179847e-05 9.4170394926184428e-06  1.2377321383044212e-01 5.0663880007463665e-04 7.6534445517747963e-04  1.2407231359279361e-01 2.9446399708303022e-05 6.1536797653557058e-05  5.8377106947058506e-04 2.0648003996078638e-04 2.5751638805780264e-05  1.2416246728314909e-01 -6.7069893703936991e-05 1.6008984075903594e-04  4.7270781693251567e-04 3.2188311137209185e-04 4.2923688226419209e-05  1.2417767271623519e-01 -1.8358255435017116e-04 3.4591832447632864e-04  3.2979391489788086e-04 4.8010082974266733e-04 6.1561948640780000e-05  1.2402779988802350e-01 -3.9339132404195705e-04 6.3867217745679575e-04  1.4902286037211430e-04 6.8937157977053641e-04 7.6055558810109869e-05  1.2355634584954425e-01 -7.9372018116960399e-04 1.0392803665745455e-03  -1.0566034521311089e-04 9.0465200586878716e-04 9.9968613808832580e-05  1.2260114194009887e-01 -1.3190944107173209e-03 1.3229277707111546e-03  -5.0753347802785830e-04 9.7204543191100842e-04 2.2659595849881236e-04  1.2170786067604616e-01 -1.1149293413674601e-03 8.8629035628881711e-04  -9.1811409960781552e-04 7.0638941823613645e-04 5.9597596697001827e-04  1.2482327557142056e-01 -1.0035067261104772e-03 -8.0185248283476244e-04  -1.2033662947550663e-03 3.1448815537876208e-04 1.7954140205542389e-04  1.2981902953718683e-01 -6.9795088619527897e-04 3.5925805449386009e-03  -1.3903392217680024e-03 2.0561440613672312e-04 -3.6430070716355441e-06  1.9460047593014204e-01 -1.6265871792475587e-04 2.2113529729103244e-04  1.9430790157635253e-01 5.5485870030818956e-04 8.9296445742114729e-04  1.9434513431860043e-01 -1.5897822112221122e-04 1.0243681057660308e-04  1.9423314066296912e-01 -2.3047766184122027e-04 1.9928177437516262e-04  1.9415796256928000e-01 -3.7777424261682034e-04 3.3763227539862647e-04  1.9398800050195819e-01 -6.3799765717672912e-04 4.5739426550283962e-04  1.9364546262059551e-01 -1.0190912922733990e-03 4.4072463311277795e-04  1.9323737818814263e-01 -1.2802420722154092e-03 -8.0173041783375655e-06  1.9368223729463885e-01 -7.1650376601433417e-04 -1.2513449312029673e-03  1.9650999879245104e-01 8.0588855485234478e-04 -3.4308210582386731e-03  2.0058689729127513e-01 -3.1065633099851346e-04 1.6891046624250576e-03  2.1431864907803846e-01 -7.9714765929381581e-05 2.0955248744094834e-04  2.1411740527414655e-01 4.0083154218879395e-04 9.1264595405194824e-04  2.1410232989501629e-01 -1.6168393057131180e-04 9.4604522228890046e-05  2.1394909279894814e-01 -1.9666673205918710e-04 1.7596070179139801e-04  2.1383242247855655e-01 -2.7305901755074864e-04 2.7250283054017639e-04  2.1365804594232740e-01 -4.0503426032370912e-04 3.1044146738025825e-04  2.1339200799124200e-01 -5.4460844712855101e-04 1.8241675848424814e-04  2.1324831212786419e-01 -4.9739717398805292e-04 -3.1131957995549796e-04  2.1429057010849362e-01 8.9912820648190302e-05 -1.3975188019962044e-03  2.1736214533436207e-01 1.1919061123726205e-03 -3.2591046005456445e-03  2.2069732264726236e-01 2.0437429734104058e-04 6.3238189551725877e-04  1.9454401333826846e-01 -6.0846498755075746e-05 1.8441884705658047e-04  1.9446174674725036e-01 2.3210016711680551e-04 8.8085958944399579e-04  1.9435316554142365e-01 -1.2065311497664596e-04 8.1082528256432691e-05  1.9421683268375758e-01 -1.1268498620482877e-04 1.5110056173890966e-04  1.9409697146174190e-01 -1.2344161364717925e-04 2.2817501068288652e-04  1.9392960291858993e-01 -1.5778871316345810e-04 2.4811248688879999e-