<?xml version="1.0"?>
<VTKFile type="UnstructuredGrid"  version="0.1"  >
<UnstructuredGrid>
<Piece  NumberOfPoints="533" NumberOfCells="2122">
<Points>
<DataArray  type="Float64"  NumberOfComponents="3"  format="ascii">0 0.2 0.2  0.1 0.2 0.2  0.1 0.3 0.2  0.1 0.3 0.3  0.1 0.2 0.3  0 0.2 0.3  0 0.3 0.2  0 0.3 0.3  0.2 0.2 0.2  0.2 0.3 0.2  0.2 0.3 0.3  0.2 0.2 0.3  0.3 0.2 0.2  0.3 0.3 0.2  0.3 0.3 0.3  0.3 0.2 0.3  0.4 0.2 0.2  0.4 0.3 0.2  0.4 0.3 0.3  0.4 0.2 0.3  0.5 0.2 0.2  0.5 0.3 0.2  0.5 0.3 0.3  0.5 0.2 0.3  0.6 0.2 0.2  0.6 0.3 0.2  0.6 0.3 0.3  0.6 0.2 0.3  0.7 0.2 0.2  0.7 0.3 0.2  0.7 0.3 0.3  0.7 0.2 0.3  0.8 0.2 0.2  0.8 0.3 0.2  0.8 0.3 0.3  0.8 0.2 0.3  0.9 0.2 0.2  0.9 0.3 0.2  0.9 0.3 0.3  0.9 0.2 0.3  1 0.2 0.2  1 0.3 0.2  1 0.3 0.3  1 0.2 0.3  0.1 0.4 0.2  0.1 0.4 0.3  0 0.4 0.2  0 0.4 0.3  0.2 0.4 0.2  0.2 0.4 0.3  0.3 0.4 0.2  0.3 0.4 0.3  0.4 0.4 0.2  0.4 0.4 0.3  0.5 0.4 0.2  0.5 0.4 0.3  0.6 0.4 0.2  0.6 0.4 0.3  0.7 0.4 0.2  0.7 0.4 0.3  0.8 0.4 0.2  0.8 0.4 0.3  0.9 0.4 0.2  0.9 0.4 0.3  1 0.4 0.2  1 0.4 0.3  0.1 0.5 0.2  0.1 0.5 0.3  0 0.5 0.2  0 0.5 0.3  0.2 0.5 0.2  0.2 0.5 0.3  0.3 0.5 0.2  0.3 0.5 0.3  0.4 0.5 0.2  0.4 0.5 0.3  0.5 0.5 0.2  0.5 0.5 0.3  0.6 0.5 0.2  0.6 0.5 0.3  0.7 0.5 0.2  0.7 0.5 0.3  0.8 0.5 0.2  0.8 0.5 0.3  0.9 0.5 0.2  0.9 0.5 0.3  1 0.5 0.2  1 0.5 0.3  0.1 0.6 0.2  0.1 0.6 0.3  0 0.6 0.2  0 0.6 0.3  0.2 0.6 0.2  0.2 0.6 0.3  0.3 0.6 0.2  0.3 0.6 0.3  0.4 0.6 0.2  0.4 0.6 0.3  0.5 0.6 0.2  0.5 0.6 0.3  0.6 0.6 0.2  0.6 0.6 0.3  0.7 0.6 0.2  0.7 0.6 0.3  0.8 0.6 0.2  0.8 0.6 0.3  0.9 0.6 0.2  0.9 0.6 0.3  1 0.6 0.2  1 0.6 0.3  0.1 0.7 0.2  0.1 0.7 0.3  0 0.7 0.2  0 0.7 0.3  0.2 0.7 0.2  0.2 0.7 0.3  0.3 0.7 0.2  0.3 0.7 0.3  0.4 0.7 0.2  0.4 0.7 0.3  0.5 0.7 0.2  0.5 0.7 0.3  0.6 0.7 0.2  0.6 0.7 0.3  0.7 0.7 0.2  0.7 0.7 0.3  0.8 0.7 0.2  0.8 0.7 0.3  0.9 0.7 0.2  0.9 0.7 0.3  1 0.7 0.2  1 0.7 0.3  0.1 0.8 0.2  0.1 0.8 0.3  0 0.8 0.2  0 0.8 0.3  0.2 0.8 0.2  0.2 0.8 0.3  0.3 0.8 0.2  0.3 0.8 0.3  0.4 0.8 0.2  0.4 0.8 0.3  0.5 0.8 0.2  0.5 0.8 0.3  0.6 0.8 0.2  0.6 0.8 0.3  0.7 0.8 0.2  0.7 0.8 0.3  0.8 0.8 0.2  0.8 0.8 0.3  0.9 0.8 0.2  0.9 0.8 0.3  1 0.8 0.2  1 0.8 0.3  0.1 0.3 0.4  0.1 0.2 0.4  0 0.2 0.4  0 0.3 0.4  0.2 0.3 0.4  0.2 0.2 0.4  0.3 0.3 0.4  0.3 0.2 0.4  0.4 0.3 0.4  0.4 0.2 0.4  0.5 0.3 0.4  0.5 0.2 0.4  0.6 0.3 0.4  0.6 0.2 0.4  0.7 0.3 0.4  0.7 0.2 0.4  0.8 0.3 0.4  0.8 0.2 0.4  0.9 0.3 0.4  0.9 0.2 0.4  1 0.3 0.4  1 0.2 0.4  0.1 0.4 0.4  0 0.4 0.4  0.2 0.4 0.4  0.3 0.4 0.4  0.4 0.4 0.4  0.5 0.4 0.4  0.6 0.4 0.4  0.7 0.4 0.4  0.8 0.4 0.4  0.9 0.4 0.4  1 0.4 0.4  0.1 0.5 0.4  0 0.5 0.4  0.2 0.5 0.4  0.3 0.5 0.4  0.4 0.5 0.4  0.5 0.5 0.4  0.6 0.5 0.4  0.7 0.5 0.4  0.8 0.5 0.4  0.9 0.5 0.4  1 0.5 0.4  0.1 0.6 0.4  0 0.6 0.4  0.2 0.6 0.4  0.3 0.6 0.4  0.4 0.6 0.4  0.5 0.6 0.4  0.6 0.6 0.4  0.7 0.6 0.4  0.8 0.6 0.4  0.9 0.6 0.4  1 0.6 0.4  0.1 0.7 0.4  0 0.7 0.4  0.2 0.7 0.4  0.3 0.7 0.4  0.4 0.7 0.4  0.5 0.7 0.4  0.6 0.7 0.4  0.7 0.7 0.4  0.8 0.7 0.4  0.9 0.7 0.4  1 0.7 0.4  0.1 0.8 0.4  0 0.8 0.4  0.2 0.8 0.4  0.3 0.8 0.4  0.4 0.8 0.4  0.5 0.8 0.4  0.6 0.8 0.4  0.7 0.8 0.4  0.8 0.8 0.4  0.9 0.8 0.4  1 0.8 0.4  0.1 0.3 0.5  0.1 0.2 0.5  0 0.2 0.5  0 0.3 0.5  0.2 0.3 0.5  0.2 0.2 0.5  0.3 0.3 0.5  0.3 0.2 0.5  0.4 0.3 0.5  0.4 0.2 0.5  0.5 0.3 0.5  0.5 0.2 0.5  0.6 0.3 0.5  0.6 0.2 0.5  0.7 0.3 0.5  0.7 0.2 0.5  0.8 0.3 0.5  0.8 0.2 0.5  0.9 0.3 0.5  0.9 0.2 0.5  1 0.3 0.5  1 0.2 0.5  0.1 0.4 0.5  0 0.4 0.5  0.2 0.4 0.5  0.3 0.4 0.5  0.4 0.4 0.5  0.5 0.4 0.5  0.6 0.4 0.5  0.7 0.4 0.5  0.8 0.4 0.5  0.9 0.4 0.5  1 0.4 0.5  0.1 0.5 0.5  0 0.5 0.5  0.2 0.5 0.5  0.3 0.5 0.5  0.4 0.5 0.5  0.5 0.5 0.5  0.6 0.5 0.5  0.7 0.5 0.5  0.8 0.5 0.5  0.9 0.5 0.5  1 0.5 0.5  0.1 0.6 0.5  0 0.6 0.5  0.2 0.6 0.5  0.3 0.6 0.5  0.4 0.6 0.5  0.5 0.6 0.5  0.6 0.6 0.5  0.7 0.6 0.5  0.8 0.6 0.5  0.9 0.6 0.5  1 0.6 0.5  0.1 0.7 0.5  0 0.7 0.5  0.2 0.7 0.5  0.3 0.7 0.5  0.4 0.7 0.5  0.5 0.7 0.5  0.6 0.7 0.5  0.7 0.7 0.5  0.8 0.7 0.5  0.9 0.7 0.5  1 0.7 0.5  0.1 0.8 0.5  0 0.8 0.5  0.2 0.8 0.5  0.3 0.8 0.5  0.4 0.8 0.5  0.5 0.8 0.5  0.6 0.8 0.5  0.7 0.8 0.5  0.8 0.8 0.5  0.9 0.8 0.5  1 0.8 0.5  0.1 0.3 0.6  0.1 0.2 0.6  0 0.2 0.6  0 0.3 0.6  0.2 0.3 0.6  0.2 0.2 0.6  0.3 0.3 0.6  0.3 0.2 0.6  0.4 0.3 0.6  0.4 0.2 0.6  0.5 0.3 0.6  0.5 0.2 0.6  0.6 0.3 0.6  0.6 0.2 0.6  0.7 0.3 0.6  0.7 0.2 0.6  0.8 0.3 0.6  0.8 0.2 0.6  0.9 0.3 0.6  0.9 0.2 0.6  1 0.3 0.6  1 0.2 0.6  0.1 0.4 0.6  0 0.4 0.6  0.2 0.4 0.6  0.3 0.4 0.6  0.4 0.4 0.6  0.5 0.4 0.6  0.6 0.4 0.6  0.7 0.4 0.6  0.8 0.4 0.6  0.9 0.4 0.6  1 0.4 0.6  0.1 0.5 0.6  0 0.5 0.6  0.2 0.5 0.6  0.3 0.5 0.6  0.4 0.5 0.6  0.5 0.5 0.6  0.6 0.5 0.6  0.7 0.5 0.6  0.8 0.5 0.6  0.9 0.5 0.6  1 0.5 0.6  0.1 0.6 0.6  0 0.6 0.6  0.2 0.6 0.6  0.3 0.6 0.6  0.4 0.6 0.6  0.5 0.6 0.6  0.6 0.6 0.6  0.7 0.6 0.6  0.8 0.6 0.6  0.9 0.6 0.6  1 0.6 0.6  0.1 0.7 0.6  0 0.7 0.6  0.2 0.7 0.6  0.3 0.7 0.6  0.4 0.7 0.6  0.5 0.7 0.6  0.6 0.7 0.6  0.7 0.7 0.6  0.8 0.7 0.6  0.9 0.7 0.6  1 0.7 0.6  0.1 0.8 0.6  0 0.8 0.6  0.2 0.8 0.6  0.3 0.8 0.6  0.4 0.8 0.6  0.5 0.8 0.6  0.6 0.8 0.6  0.7 0.8 0.6  0.8 0.8 0.6  0.9 0.8 0.6  1 0.8 0.6  0.1 0.3 0.7  0.1 0.2 0.7  0 0.2 0.7  0 0.3 0.7  0.2 0.3 0.7  0.2 0.2 0.7  0.3 0.3 0.7  0.3 0.2 0.7  0.4 0.3 0.7  0.4 0.2 0.7  0.5 0.3 0.7  0.5 0.2 0.7  0.6 0.3 0.7  0.6 0.2 0.7  0.7 0.3 0.7  0.7 0.2 0.7  0.8 0.3 0.7  0.8 0.2 0.7  0.9 0.3 0.7  0.9 0.2 0.7  1 0.3 0.7  1 0.2 0.7  0.1 0.4 0.7  0 0.4 0.7  0.2 0.4 0.7  0.3 0.4 0.7  0.4 0.4 0.7  0.5 0.4 0.7  0.6 0.4 0.7  0.7 0.4 0.7  0.8 0.4 0.7  0.9 0.4 0.7  1 0.4 0.7  0.1 0.5 0.7  0 0.5 0.7  0.2 0.5 0.7  0.3 0.5 0.7  0.4 0.5 0.7  0.5 0.5 0.7  0.6 0.5 0.7  0.7 0.5 0.7  0.8 0.5 0.7  0.9 0.5 0.7  1 0.5 0.7  0.1 0.6 0.7  0 0.6 0.7  0.2 0.6 0.7  0.3 0.6 0.7  0.4 0.6 0.7  0.5 0.6 0.7  0.6 0.6 0.7  0.7 0.6 0.7  0.8 0.6 0.7  0.9 0.6 0.7  1 0.6 0.7  0.1 0.7 0.7  0 0.7 0.7  0.2 0.7 0.7  0.3 0.7 0.7  0.4 0.7 0.7  0.5 0.7 0.7  0.6 0.7 0.7  0.7 0.7 0.7  0.8 0.7 0.7  0.9 0.7 0.7  1 0.7 0.7  0.1 0.8 0.7  0 0.8 0.7  0.2 0.8 0.7  0.3 0.8 0.7  0.4 0.8 0.7  0.5 0.8 0.7  0.6 0.8 0.7  0.7 0.8 0.7  0.8 0.8 0.7  0.9 0.8 0.7  1 0.8 0.7  0.1 0.3 0.8  0.1 0.2 0.8  0 0.2 0.8  0 0.3 0.8  0.2 0.3 0.8  0.2 0.2 0.8  0.3 0.3 0.8  0.3 0.2 0.8  0.4 0.3 0.8  0.4 0.2 0.8  0.5 0.3 0.8  0.5 0.2 0.8  0.6 0.3 0.8  0.6 0.2 0.8  0.7 0.3 0.8  0.7 0.2 0.8  0.8 0.3 0.8  0.8 0.2 0.8  0.9 0.3 0.8  0.9 0.2 0.8  1 0.3 0.8  1 0.2 0.8  0.1 0.4 0.8  0 0.4 0.8  0.2 0.4 0.8  0.3 0.4 0.8  0.4 0.4 0.8  0.5 0.4 0.8  0.6 0.4 0.8  0.7 0.4 0.8  0.8 0.4 0.8  0.9 0.4 0.8  1 0.4 0.8  0.1 0.5 0.8  0 0.5 0.8  0.2 0.5 0.8  0.3 0.5 0.8  0.4 0.5 0.8  0.5 0.5 0.8  0.6 0.5 0.8  0.7 0.5 0.8  0.8 0.5 0.8  0.9 0.5 0.8  1 0.5 0.8  0.1 0.6 0.8  0 0.6 0.8  0.2 0.6 0.8  0.3 0.6 0.8  0.4 0.6 0.8  0.5 0.6 0.8  0.6 0.6 0.8  0.7 0.6 0.8  0.8 0.6 0.8  0.9 0.6 0.8  1 0.6 0.8  0.1 0.7 0.8  0 0.7 0.8  0.2 0.7 0.8  0.3 0.7 0.8  0.4 0.7 0.8  0.5 0.7 0.8  0.6 0.7 0.8  0.7 0.7 0.8  0.8 0.7 0.8  0.9 0.7 0.8  1 0.7 0.8  0.1 0.8 0.8  0 0.8 0.8  0.2 0.8 0.8  0.3 0.8 0.8  0.4 0.8 0.8  </DataArray>
</Points>
<Cells>
[...]
<PointData  Vectors="f_23"> 
<DataArray  type="Float64"  Name="f_23"  NumberOfComponents="3" format="ascii">1.3422335656617368e-03 2.0756384099238133e-04 1.3086377785571294e-04  1.2887766095671098e-03 2.7041663295262168e-04 1.8186894400378569e-04  1.3645927432863508e-03 2.4835966235982484e-04 1.9085661329237296e-04  5.5650498057953426e-02 -5.2956077593350375e-04 -4.1164469558987136e-04  1.3663353310203663e-03 2.8194980181100445e-04 2.0566645136944637e-04  1.4160136034250840e-03 2.5615796389897113e-04 1.3751892729757954e-04  1.4288949405710505e-03 1.7584409450837457e-04 1.8206247149215156e-04  5.4228896510671296e-02 -9.4834887748183069e-04 -7.8430912210443872e-04  1.1472663821765578e-03 3.4619935718524373e-04 2.2953537103813959e-04  1.2262366798939863e-03 3.3607365167375163e-04 2.5400553833394900e-04  5.6374437041286772e-02 -4.1714133642005208e-04 -1.9169394158628412e-04  1.2541030689107594e-03 3.8493096195584730e-04 2.8905224219181568e-04  8.1381867255511382e-04 3.9543622722325089e-04 2.7905006698858236e-04  9.0008093805845669e-04 3.8828813187970326e-04 3.0014200696531514e-04  5.6057541962044335e-02 -2.8318734522816578e-04 6.7999519879825235e-05  9.4824167057148989e-04 4.5002194172416332e-04 3.7370286739183079e-04  3.6242794442131558e-04 4.0876365381269130e-04 3.3221540308689043e-04  4.5024982107853958e-04 3.9978926892175580e-04 3.4076529668801528e-04  5.5582912241455042e-02 -1.7180988868063340e-04 3.9088789339029043e-04  5.1889362556839589e-04 4.7972449053623398e-04 4.5988027285124780e-04  -1.7629163482329601e-04 3.7695857291908386e-04 3.9284996257900714e-04  -9.0345045421952091e-05 3.6925705260468147e-04 3.8477234425004987e-04  5.4918777088560654e-02 -8.8596498972320009e-05 7.3696469314325904e-04  -1.2384053635137303e-05 4.6843186899509707e-04 5.5500272145482825e-04  -7.6584389254486483e-04 2.9854085723666915e-04 4.4351336718045616e-04  -6.8689691214098459e-04 2.9957536602031031e-04 4.1989571814118030e-04  5.4129685009347048e-02 -4.1906564596195603e-05 9.9386571384653161e-04  -6.3075192422371279e-04 4.0183467912613906e-04 6.4784525947183440e-04  -1.3095938605750884e-03 1.8952180547279160e-04 4.1809603178140988e-04  -1.2532292835823636e-03 2.0150532246476606e-04 3.9506290238334031e-04  5.3469888032985864e-02 -1.0524511527900002e-05 9.7137670892543369e-04  -1.2640949031642896e-03 2.7883281479292558e-04 6.6605806712270428e-04  -1.6332131700978192e-03 8.1930666552655556e-05 2.6219740179093389e-04  -1.6236739680425647e-03 9.9940441852017087e-05 2.5988285353995406e-04  5.3346331233642755e-02 1.2133808777728694e-05 3.9680638345324185e-04  -1.7290895063909472e-03 1.3170595700085297e-04 4.6629354506721863e-04  -1.6935270625478781e-03 3.2351834871120237e-05 9.1201120842349131e-05  -1.7136839856789986e-03 3.3876567631326815e-05 1.1907324277198305e-04  5.3915349548388496e-02 6.7384310832166948e-05 -4.7110543317354395e-04  -1.8585369016113512e-03 5.8112686509282570e-05 1.7544289960918553e-04  -1.7325473798982160e-03 4.5204233449542090e-05 1.6512514188815787e-04  -1.7111593554503626e-03 2.6426423734793463e-05 1.4774234706262362e-04  5.4964941235086190e-02 -1.4173494066219988e-04 -2.2917422398744050e-04  -1.8608253746173543e-03 3.4280464196845869e-05 2.2195095652422468e-04  1.4947959973839282e-03 2.5127154890983692e-04 2.6685379328860402e-04  1.0199066625243225e-01 -4.3809387886620255e-04 -5.2930859406115100e-04  1.5848733362053150e-03 1.8428419970086226e-04 2.4660000142813900e-04  1.0126283834990379e-01 -1.8500634552448647e-03 -1.0443656306855637e-03  1.3074976518012080e-03 3.5322882074736463e-04 3.5253717478097316e-04  1.0256866183257991e-01 -2.6203900787857826e-04 -2.7568744646183695e-04  9.3386043049985745e-04 4.0485746794077234e-04 3.9917000928421209e-04  1.0229861775352113e-01 -1.7383452637391748e-04 3.4813669630823183e-05  4.3980863924988699e-04 3.9983511027938423e-04 4.2369384368782229e-04  1.0178800315061107e-01 -9.9727929608285141e-05 3.9498220230087104e-04  -1.3884134002576255e-04 3.4937718512035844e-04 4.4461359572280887e-04  1.0113986595736316e-01 -6.7498737501969430e-05 6.9031642613071520e-04  -7.6295777376610618e-04 2.7128595327339611e-04 4.5372993766024133e-04  1.0053698776446185e-01 -6.5362518519101911e-05 7.8208405441655736e-04  -1.3436750927132966e-03 1.8452227114455758e-04 4.0633383464836934e-04  1.0028502693538636e-01 -2.5068890437441884e-05 5.3401987289402480e-04  -1.7082925169756601e-03 1.0172434760121874e-04 2.6074626969912427e-04  1.0064634350190355e-01 9.3739399445655810e-05 -1.4740594910607929e-04  -1.7706572859760930e-03 3.3831502317064363e-05 1.2229909545794870e-04  1.0147785017060512e-01 2.1352231488873499e-04 -8.7102087290257077e-04  -1.7452935954870941e-03 2.5864509654420861e-05 1.4984162580741685e-04  1.0278391324156473e-01 -5.1097194509834153e-04 -6.5469961889338556e-04  1.6329093055850827e-03 2.4348334445785028e-04 3.3404817750124128e-04  1.1679669046997415e-01 -4.8619368744597818e-04 -7.1275975628713045e-04  1.7516425276159142e-03 1.8485677741191168e-04 2.9248220545699657e-04  1.1634148359469704e-01 -1.6678017294267143e-03 -1.4397022445419823e-03  1.3907601069801823e-03 3.5397290078583804e-04 4.4454718581731498e-04  1.1729874796219915e-01 -5.8112565678631143e-05 -3.7835463401863476e-04  9.5495155117872462e-04 4.0580767827052899e-04 4.9466696774655731e-04  1.1702008604947510e-01 9.8939857062641014e-05 -4.2107141929302446e-05  4.0491380349943524e-04 3.9029040916456899e-04 5.0008395130216802e-04  1.1654069181759805e-01 1.7909935733615909e-04 4.0442047875229162e-04  -2.1049167396918424e-04 3.2428739657544011e-04 4.9207536727899966e-04  1.1589870969779337e-01 1.8355964269903724e-04 6.9392720157853739e-04  -8.4653659007823340e-04 2.3771577943414442e-04 4.7178305445536966e-04  1.1536946771848700e-01 1.4571073519342549e-04 6.9344314208917329e-04  -1.4233455561191339e-03 1.6156284734930395e-04 4.0578991830985908e-04  1.1530619450829327e-01 1.5983847571433789e-04 3.5024005690462514e-04  -1.7801792349501609e-03 1.0597436765123594e-04 2.5791832214843271e-04  1.1584970619758514e-01 2.9316829337133543e-04 -3.1428278140869327e-04  -1.8278632858518475e-03 3.7128268809515067e-05 1.2231160895235255e-04  1.1663073646577012e-01 4.1637534760391486e-04 -8.8697829229167195e-04  -1.7986981139890802e-03 4.5643254362233231e-05 1.4974113078461776e-04  1.1769556370073370e-01 -5.3530653360808929e-04 -9.3360743437538498e-04  1.7718092253783549e-03 2.1363336191086536e-04 3.6078159207408780e-04  1.0227841014538368e-01 -1.8595662305485045e-04 -7.8610501818368172e-04  1.9130921424465558e-03 1.5622414738235198e-04 3.0191304571712524e-04  1.0199375609541732e-01 -9.0592456214441696e-04 -1.6566151144576835e-03  1.4753387251863982e-03 3.2236444985300631e-04 4.8749060349288683e-04  1.0282322574034725e-01 1.1573232454656525e-04 -4.4613849547844089e-04  9.7806256851094733e-04 3.7275744637165609e-04 5.4515315498601235e-04  1.0257403126837343e-01 2.4312729384700445e-04 -6.7034536333732169e-05  3.6909567639905781e-04 3.5962917425559675e-04 5.3761092793871772e-04  1.0207190367129163e-01 2.8730254102788994e-04 4.8547020850408617e-04  -2.8331170325492897e-04 2.9609654529898102e-04 5.0525921328931338e-04  1.0135481422960706e-01 2.5972446776159370e-04 7.8526939107562491e-04  -9.2248648773485330e-04 2.1304560868412993e-04 4.5916267844186025e-04  1.0078771355812914e-01 2.0030458658902017e-04 7.3340362773050591e-04  -1.4813466781819354e-03 1.4612189203872084e-04 3.8097991533811491e-04  1.0074426599551969e-01 1.8846713804467982e-04 3.7861312220161339e-04  -1.8328259535174108e-03 1.1095152108656454e-04 2.4207838819292158e-04  1.0124067738950276e-01 3.0265065069023310e-04 -1.7791141403310522e-04  -1.8877339353364944e-03 4.5486508190017097e-05 1.1555560019625210e-04  1.0169194684999751e-01 5.7771423127249172e-04 -5.4176048971344760e-04  -1.8738936534139902e-03 7.0864751096333286e-05 1.3753114666130510e-04  1.0220774952432264e-01 -3.4497532096570488e-04 -7.8669719878509054e-04  1.9052370447393450e-03 1.6414106920385255e-04 3.1246427215580428e-04  5.6570451060314247e-02 3.5832093914220619e-04 -6.1294289865866756e-04  2.0399657812594039e-03 1.0356281755273071e-04 2.4799350879423565e-04  5.6120439925587580e-02 1.1987815192066011e-04 -1.5228679970631421e-03  1.5729748262937131e-03 2.7167946668574461e-04 4.3699844283306185e-04  5.7312806742088267e-02 2.7861544408331083e-04 -2.7651305096902060e-04  1.0376074947688143e-03 3.2573838520977570e-04 5.0667185835698097e-04  5.7044395773593069e-02 2.2135195335719788e-04 1.2608970656614028e-04  3.8660221894132844e-04 3.2725839754350075e-04 5.0767305840609554e-04  5.6412585320549297e-02 1.6370779257303368e-04 6.7131520784511148e-04  -3.0145370552609911e-04 2.8451561203275423e-04 4.7636226368828771e-04  5.5499303611986968e-02 8.8510888430448666e-05 9.5397753634663318e-04  -9.5440680926803321e-04 2.1753020938707163e-04 4.2807833747891203e-04  5.4706667154539618e-02 2.4562606469388750e-05 9.0014181949656276e-04  -1.5064124570657372e-03 1.5505396819368090e-04 3.5512531039679342e-04  5.4440334469248938e-02 3.5916219244236892e-06 6.0391062596055383e-04  -1.8608228072665475e-03 1.1627523914799716e-04 2.3422370466609233e-04  5.4801165706802810e-02 3.6097529280331392e-05 2.1074069267671425e-04  -1.9426950634393873e-03 7.3779874739800152e-05 1.0795950117139661e-04  5.4793065612641516e-02 2.3435747351362556e-04 4.8752451879325723e-05  -1.9474769811621601e-03 7.0263015674692272e-05 1.1865609667012732e-04  5.3928487425981615e-02 2.8443047587986618e-04 -2.7054380478497064e-04  1.9885292386406478e-03 1.2492692572895378e-04 1.7826187622004520e-04  2.0897839748991389e-03 9.8367192064743912e-05 2.1485665061059044e-04  1.9855753832305639e-03 1.3763512584755112e-04 1.0380422069225554e-04  2.1403710813490090e-03 1.0182178179362676e-04 1.7214122415119959e-04  1.7726822437936006e-03 2.2341611933497825e-04 2.5815521678970179e-04  1.8609576330849626e-03 2.0777198290694769e-04 3.8104123945215411e-04  1.3044480966876598e-03 2.8200146938922859e-04 3.2113273042386344e-04  1.4837512724967306e-03 2.8568988741666380e-04 5.0698347798778934e-04  6.7936635096778602e-04 2.8794231256807658e-04 3.5089800015149214e-04  9.1465167616281069e-04 3.1444542304920575e-04 5.7007426132415671e-04  -1.8735687428645291e-05 2.5815102015655777e-04 3.4692105222580922e-04  2.4034439530845383e-04 2.9830287030494748e-04 5.7235819601237227e-04  -7.0630807905100782e-04 2.0434767086026365e-04 3.2254749353757698e-04  -4.4575375267035504e-04 2.4426967817864993e-04 5.3402875257257737e-04  -1.3190426738690993e-03 1.4749255257880098e-04 2.8537272356737853e-04  -1.0896623149063347e-03 1.7846793766480580e-04 4.7081598537249402e-04  -1.7631575951951234e-03 1.0594302461203626e-04 2.1996821318398147e-04  -1.6174975305504366e-03 1.2694624438877038e-04 3.7027128581879184e-04  -1.9400800406446947e-03 7.7484682735988125e-05 1.2402968998637148e-04  -1.9010502695233256e-03 8.8629215665781086e-05 2.1882479609938683e-04  -1.9812398998247222e-03 6.1195344106091670e-05 1.1135245760343351e-04  -1.9649452485400436e-03 9.7845924946136361e-05 1.3194942204545145e-04  1.0208155825143977e-01 -7.1082257825894513e-04 -2.7723354339660163e-04  1.5052274369621100e-03 3.5674590158720496e-04 2.6695002130769141e-04  1.5671635788526569e-03 3.1917367915438628e-04 1.8629582448880671e-04  1.0123590680508203e-01 -1.2684557248166931e-03 -1.3916320526925674e-03  1.0278070103223567e-01 -5.3492377044232764e-04 1.6813724403454692e-05  1.3837887313437416e-03 4.8822079050508531e-04 4.0814585399603345e-04  1.0254937080422952e-01 -3.2499256098761950e-04 2.7600443331308035e-04  1.0717954596595174e-03 5.6649085206848912e-04 5.4478465448261056e-04  1.0211306223264886e-01 -1.2500303871099765e-04 5.9905357830667989e-04  6.4158210444332901e-04 6.0755243103040985e-04 6.7883736236965561e-04  1.0147335239005896e-01 -2.6506990362607852e-07 9.3232066738085202e-04  9.6380172209513138e-05 6.2158977844046094e-04 8.2695387441019286e-04  1.0067505522493939e-01 1.0843566785286781e-05 1.1765055963017289e-03  -5.8396374078273057e-04 5.8573355575442573e-04 9.9533480512077328e-04  9.9881597903551889e-02 -1.4416734112834743e-05 1.1120681060000795e-03  -1.3600109282713086e-03 4.5528169075866981e-04 1.1285961693875001e-03  9.9628066601189655e-02 -5.8306824002532135e-05 3.0297003965989674e-04  -1.9959919581182596e-03 2.3647338632504922e-04 9.3934716978176112e-04  1.0062155110365294e-01 -9.8211311465877502e-05 -1.2172154512274139e-03  -2.2488857782667158e-03 9.5194708726037828e-05 3.2611188607570534e-04  1.0136702575539026e-01 -1.4996733747678673e-04 4.1112073579812106e-05  -2.3250975884432142e-03 5.6123946203679581e-05 4.0249228279050657e-04  1.7777164881136714e-01 -7.1564076507502831e-04 -4.7561711373046467e-04  1.7846943586393257e-01 -2.6297488272020047e-03 -2.0615868228953667e-03  1.7821615620954401e-01 -4.4116919893118109e-04 -8.5783023563167383e-05  1.7818726013398734e-01 -2.5709198385722224e-04 2.4462134854293750e-04  1.7775452931892521e-01 -5.3413915423804344e-05 6.4052796247242359e-04  1.7710233700515807e-01 -8.1641903882741718e-06 8.4710430449965184e-04  1.7652122400067816e-01 -1.0480651037879034e-04 7.1457926388301832e-04  1.7636138667171897e-01 -1.7592350247658546e-04 1.0744985905896029e-04  1.7701072341340973e-01 -4.3939342526338504e-05 -1.1792705910381978e-03  1.7835680349285754e-01 2.9619340291680451e-04 -2.6500166122525592e-03  1.7915132398951517e-01 -6.4531453218626437e-04 -1.5233668021367118e-03  2.0218744586482026e-01 -8.6336901939534179e-04 -7.1735292371608928e-04  2.0353200511436259e-01 -2.5187879382186705e-03 -2.8274163031861170e-03  2.0248399626966074e-01 -2.1255244674692273e-04 -1.9356707663524311e-04  2.0256924922304076e-01 9.2299729762090687e-05 2.2177143410994268e-04  2.0224550013868137e-01 3.4268837095460911e-04 8.7810352323593362e-04  2.0157133037010125e-01 3.5254113509091409e-04 1.0327836147139347e-03  2.0106781060321183e-01 1.9103315015147319e-04 6.3241450904735438e-04  2.0121337486020480e-01 1.0128468848122358e-04 -2.6078347969802588e-04  2.0226263111517950e-01 2.8394105343808226e-04 -1.6761949305910395e-03  2.0371050635081864e-01 7.1497673913417203e-04 -2.9832335668966647e-03  2.0414055758637975e-01 -4.5171176114144510e-04 -2.4153001317564048e-03  1.7788295424838566e-01 -5.3580614857131020e-04 -9.2036652492230586e-04  1.7962039269431668e-01 -1.5383759732758753e-03 -3.3184971809495155e-03  1.7822966970292156e-01 -3.1583876426220510e-05 -3.2975093500983862e-04  1.7846230081736209e-01 2.7734834181643856e-04 2.5293340619185543e-04  1.7816662430947530e-01 4.7051294750456208e-04 1.2896792768862626e-03  1.7733757979874054e-01 4.3426576237117783e-04 1.4092118703340826e-03  1.7675697229387841e-01 2.6291947268885065e-04 7.9914179472266274e-04  1.7696660699116881e-01 1.7681472705195723e-04 -2.0379862338528758e-04  1.7803858468074202e-01 3.5820903490190180e-04 -1.4374349833265283e-03  1.7917451927042899e-01 9.9298758035179730e-04 -2.3630337384397166e-03  1.7899514704402009e-01 -1.0733280361289096e-04 -2.2580993046810551e-03  1.0213911183166269e-01 1.1564860602641577e-04 -7.2092514625175450e-04  1.0361039436874492e-01 -1.7991910780116831e-04 -3.1026023991037781e-03  1.0267805529913140e-01 1.7135146452328912e-04 -2.2310422575810089e-04  1.0291250737487297e-01 2.5995496550671566e-04 4.2792098255567136e-04  1.0248266710328362e-01 2.7957003864468720e-04 1.5955941678555043e-03  1.0133956785238275e-01 2.0061700484465619e-04 1.7702484921376077e-03  1.0041535736664868e-01 6.2185847888823918e-05 1.2103634155497477e-03  1.0026871460164079e-01 -1.0629377878475668e-05 3.8250034752627862e-04  1.0109101745291849e-01 4.8696233003558148e-05 -4.8946595688150211e-04  1.0163114998264183e-01 4.7488416920201082e-04 -1.0212676349442540e-03  1.0004032147526883e-01 6.7955988648104595e-04 -1.2756060656744490e-03  2.4128231875571600e-03 9.1772461310994072e-05 3.1380841430167982e-04  2.4734264895367843e-03 1.0205660523213752e-04 3.2674400362424496e-04  2.1080472841179523e-03 1.8901966975723195e-04 6.4751662021758714e-04  1.6486460058351019e-03 2.7219201995107490e-04 9.2102149869982444e-04  9.7758592517335893e-04 3.0665011438277761e-04 1.0746891116552915e-03  2.1835216095071058e-04 2.9019209119754809e-04 1.0948860642804915e-03  -4.9469053720084912e-04 2.1920889857501093e-04 1.0171853617095706e-03  -1.1546961613111894e-03 1.3297517267186898e-04 8.9349946184670342e-04  -1.7371618425119104e-03 7.2324280975254139e-05 7.2077079890598295e-04  -2.0841182629343946e-03 4.4704564864102633e-05 4.6093932741251588e-04  -2.1385893550754697e-03 8.2371724444970404e-05 2.9791382659608516e-04  1.1700315927534154e-01 -9.2104400455796163e-04 -2.6562599409261716e-04  1.6828572992239358e-03 4.1881727373500633e-04 2.9102893614556567e-04  1.7574251298425386e-03 3.5767230096094379e-04 2.1295910629641712e-04  1.1641901146495924e-01 -1.7279498313544604e-03 -1.1997419283246351e-03  1.1770630748908391e-01 -6.2811178560286314e-04 1.8632207793537026e-04  1.5487081668664592e-03 5.7853010787408906e-04 4.6312226333165921e-04  1.1754887869975743e-01 -3.6511286618174797e-04 4.6561828663852959e-04  1.2323982527980915e-03 6.7408744375527653e-04 6.2205741180505932e-04  1.1722130015870119e-01 -3.7637297061961949e-05 7.2313434362432209e-04  8.1727679375848843e-04 7.3140102173857590e-04 7.7549494807074902e-04  1.1660290029918945e-01 1.2891915158107334e-04 9.3454977595831216e-04  2.9733570788516121e-04 7.9303787461993845e-04 9.5029928746365080e-04  1.1567085885526747e-01 2.8937320956175554e-05 1.0872230111780275e-03  -4.2349160248167914e-04 8.5846955147946338e-04 1.1712321397110328e-03  1.1450722351267925e-01 -3.4012091626733134e-04 1.1571556809770271e-03  -1.4455663124428378e-03 8.3479799363380194e-04 1.4624761893095792e-03  1.1360921893487778e-01 -5.3368368951985969e-04 8.3971192882565065e-04  -2.3826033868860098e-03 5.8027763511784810e-04 1.7967841973846586e-03  1.1457021706802356e-01 -9.7943486001429909e-04 -7.1378081809698340e-04  -2.8179126827673115e-03 2.4360475152752117e-04 7.0644903413187923e-04  1.1527468210116024e-01 -1.4603859803057353e-03 2.3725925218744883e-03  -3.0894397909186407e-03 1.4792264649580685e-04 6.1381779104809119e-04  2.0232024364622875e-01 -1.0058337944952840e-03 -5.7962994558734770e-04  2.0363761606153641e-01 -3.4401268692170568e-03 -1.9341499878273479e-03  2.0270050122614322e-01 -5.6828280140543207e-04 8.1203830636237379e-05  2.0284921344164644e-01 -2.7675152567227458e-04 4.8883641425270449e-04  2.0255624012020493e-01 2.2239706929331703e-04 8.6108421396034968e-04  2.0180923171906545e-01 2.6327068965958591e-04 9.0909404868933332e-04  2.0096273051654320e-01 -8.9730856758381223e-05 5.1781404348736129e-04  2.0035411448536150e-01 -5.4870362139588093e-04 -3.3674523414692250e-04  2.0062089147703574e-01 -6.6068569632508456e-04 -1.7010343368315634e-03  2.0177643594695305e-01 -6.6976438684027096e-05 -4.0496356858369361e-03  2.0176236590431312e-01 -1.7561350255156883e-03 -1.2755959287597464e-03  2.2994071704365096e-01 -1.2488719109403209e-03 -9.3594094363886975e-04  2.3237394766468697e-01 -3.4666725601307162e-03 -2.8452791726528153e-03  2.3010603626290643e-01 -3.0848052021154255e-04 5.7625708797973261e-06  2.3061563786047046e-01 2.8420312531701470e-04 6.9348936140119460e-04  2.3058036724152439e-01 1.0457601475841760e-03 1.5577495113136008e-03  2.2961471817363421e-01 9.7838787542360497e-04 1.4701004175183719e-03  2.2878634931163302e-01 4.2432975299629442e-04 5.6407473697293246e-04  2.2854012909821270e-01 1.5619261706224060e-06 -8.4871049205342516e-04  2.2934429886403773e-01 1.3480238097989073e-04 -2.6879631854189378e-03  2.3080671991213336e-01 9.3440112176390372e-04 -5.1095290725676904e-03  2.3027039401332564e-01 -7.9447224703945568e-04 -3.5617360144814974e-03  2.0240725730520306e-01 -9.1088404457046336e-04 -1.3126916797874329e-03  2.0569342784910291e-01 -2.3724464228670169e-03 -3.6505204678531048e-03  2.0265700066386663e-01 -6.5045197838133610e-05 -2.7274109532770624e-04  2.0352184967107415e-01 6.9702216949122915e-04 1.1276727369448824e-03  2.0377625285745535e-01 1.4650177185433664e-03 2.9813957078310320e-03  2.0234512311734010e-01 1.2415482139318376e-03 2.5279537804068532e-03