<?xml version="1.0"?>
<VTKFile type="UnstructuredGrid"  version="0.1"  >
<UnstructuredGrid>
<Piece  NumberOfPoints="539" NumberOfCells="2160">
<Points>
<DataArray  type="Float64"  NumberOfComponents="3"  format="ascii">0 0.2 0.2  0.1 0.2 0.2  0.1 0.3 0.2  0.1 0.3 0.3  0.1 0.2 0.3  0 0.2 0.3  0 0.3 0.2  0 0.3 0.3  0.2 0.2 0.2  0.2 0.3 0.2  0.2 0.3 0.3  0.2 0.2 0.3  0.3 0.2 0.2  0.3 0.3 0.2  0.3 0.3 0.3  0.3 0.2 0.3  0.4 0.2 0.2  0.4 0.3 0.2  0.4 0.3 0.3  0.4 0.2 0.3  0.5 0.2 0.2  0.5 0.3 0.2  0.5 0.3 0.3  0.5 0.2 0.3  0.6 0.2 0.2  0.6 0.3 0.2  0.6 0.3 0.3  0.6 0.2 0.3  0.7 0.2 0.2  0.7 0.3 0.2  0.7 0.3 0.3  0.7 0.2 0.3  0.8 0.2 0.2  0.8 0.3 0.2  0.8 0.3 0.3  0.8 0.2 0.3  0.9 0.2 0.2  0.9 0.3 0.2  0.9 0.3 0.3  0.9 0.2 0.3  1 0.2 0.2  1 0.3 0.2  1 0.3 0.3  1 0.2 0.3  0.1 0.4 0.2  0.1 0.4 0.3  0 0.4 0.2  0 0.4 0.3  0.2 0.4 0.2  0.2 0.4 0.3  0.3 0.4 0.2  0.3 0.4 0.3  0.4 0.4 0.2  0.4 0.4 0.3  0.5 0.4 0.2  0.5 0.4 0.3  0.6 0.4 0.2  0.6 0.4 0.3  0.7 0.4 0.2  0.7 0.4 0.3  0.8 0.4 0.2  0.8 0.4 0.3  0.9 0.4 0.2  0.9 0.4 0.3  1 0.4 0.2  1 0.4 0.3  0.1 0.5 0.2  0.1 0.5 0.3  0 0.5 0.2  0 0.5 0.3  0.2 0.5 0.2  0.2 0.5 0.3  0.3 0.5 0.2  0.3 0.5 0.3  0.4 0.5 0.2  0.4 0.5 0.3  0.5 0.5 0.2  0.5 0.5 0.3  0.6 0.5 0.2  0.6 0.5 0.3  0.7 0.5 0.2  0.7 0.5 0.3  0.8 0.5 0.2  0.8 0.5 0.3  0.9 0.5 0.2  0.9 0.5 0.3  1 0.5 0.2  1 0.5 0.3  0.1 0.6 0.2  0.1 0.6 0.3  0 0.6 0.2  0 0.6 0.3  0.2 0.6 0.2  0.2 0.6 0.3  0.3 0.6 0.2  0.3 0.6 0.3  0.4 0.6 0.2  0.4 0.6 0.3  0.5 0.6 0.2  0.5 0.6 0.3  0.6 0.6 0.2  0.6 0.6 0.3  0.7 0.6 0.2  0.7 0.6 0.3  0.8 0.6 0.2  0.8 0.6 0.3  0.9 0.6 0.2  0.9 0.6 0.3  1 0.6 0.2  1 0.6 0.3  0.1 0.7 0.2  0.1 0.7 0.3  0 0.7 0.2  0 0.7 0.3  0.2 0.7 0.2  0.2 0.7 0.3  0.3 0.7 0.2  0.3 0.7 0.3  0.4 0.7 0.2  0.4 0.7 0.3  0.5 0.7 0.2  0.5 0.7 0.3  0.6 0.7 0.2  0.6 0.7 0.3  0.7 0.7 0.2  0.7 0.7 0.3  0.8 0.7 0.2  0.8 0.7 0.3  0.9 0.7 0.2  0.9 0.7 0.3  1 0.7 0.2  1 0.7 0.3  0.1 0.8 0.2  0.1 0.8 0.3  0 0.8 0.2  0 0.8 0.3  0.2 0.8 0.2  0.2 0.8 0.3  0.3 0.8 0.2  0.3 0.8 0.3  0.4 0.8 0.2  0.4 0.8 0.3  0.5 0.8 0.2  0.5 0.8 0.3  0.6 0.8 0.2  0.6 0.8 0.3  0.7 0.8 0.2  0.7 0.8 0.3  0.8 0.8 0.2  0.8 0.8 0.3  0.9 0.8 0.2  0.9 0.8 0.3  1 0.8 0.2  1 0.8 0.3  0.1 0.3 0.4  0.1 0.2 0.4  0 0.2 0.4  0 0.3 0.4  0.2 0.3 0.4  0.2 0.2 0.4  0.3 0.3 0.4  0.3 0.2 0.4  0.4 0.3 0.4  0.4 0.2 0.4  0.5 0.3 0.4  0.5 0.2 0.4  0.6 0.3 0.4  0.6 0.2 0.4  0.7 0.3 0.4  0.7 0.2 0.4  0.8 0.3 0.4  0.8 0.2 0.4  0.9 0.3 0.4  0.9 0.2 0.4  1 0.3 0.4  1 0.2 0.4  0.1 0.4 0.4  0 0.4 0.4  0.2 0.4 0.4  0.3 0.4 0.4  0.4 0.4 0.4  0.5 0.4 0.4  0.6 0.4 0.4  0.7 0.4 0.4  0.8 0.4 0.4  0.9 0.4 0.4  1 0.4 0.4  0.1 0.5 0.4  0 0.5 0.4  0.2 0.5 0.4  0.3 0.5 0.4  0.4 0.5 0.4  0.5 0.5 0.4  0.6 0.5 0.4  0.7 0.5 0.4  0.8 0.5 0.4  0.9 0.5 0.4  1 0.5 0.4  0.1 0.6 0.4  0 0.6 0.4  0.2 0.6 0.4  0.3 0.6 0.4  0.4 0.6 0.4  0.5 0.6 0.4  0.6 0.6 0.4  0.7 0.6 0.4  0.8 0.6 0.4  0.9 0.6 0.4  1 0.6 0.4  0.1 0.7 0.4  0 0.7 0.4  0.2 0.7 0.4  0.3 0.7 0.4  0.4 0.7 0.4  0.5 0.7 0.4  0.6 0.7 0.4  0.7 0.7 0.4  0.8 0.7 0.4  0.9 0.7 0.4  1 0.7 0.4  0.1 0.8 0.4  0 0.8 0.4  0.2 0.8 0.4  0.3 0.8 0.4  0.4 0.8 0.4  0.5 0.8 0.4  0.6 0.8 0.4  0.7 0.8 0.4  0.8 0.8 0.4  0.9 0.8 0.4  1 0.8 0.4  0.1 0.3 0.5  0.1 0.2 0.5  0 0.2 0.5  0 0.3 0.5  0.2 0.3 0.5  0.2 0.2 0.5  0.3 0.3 0.5  0.3 0.2 0.5  0.4 0.3 0.5  0.4 0.2 0.5  0.5 0.3 0.5  0.5 0.2 0.5  0.6 0.3 0.5  0.6 0.2 0.5  0.7 0.3 0.5  0.7 0.2 0.5  0.8 0.3 0.5  0.8 0.2 0.5  0.9 0.3 0.5  0.9 0.2 0.5  1 0.3 0.5  1 0.2 0.5  0.1 0.4 0.5  0 0.4 0.5  0.2 0.4 0.5  0.3 0.4 0.5  0.4 0.4 0.5  0.5 0.4 0.5  0.6 0.4 0.5  0.7 0.4 0.5  0.8 0.4 0.5  0.9 0.4 0.5  1 0.4 0.5  0.1 0.5 0.5  0 0.5 0.5  0.2 0.5 0.5  0.3 0.5 0.5  0.4 0.5 0.5  0.5 0.5 0.5  0.6 0.5 0.5  0.7 0.5 0.5  0.8 0.5 0.5  0.9 0.5 0.5  1 0.5 0.5  0.1 0.6 0.5  0 0.6 0.5  0.2 0.6 0.5  0.3 0.6 0.5  0.4 0.6 0.5  0.5 0.6 0.5  0.6 0.6 0.5  0.7 0.6 0.5  0.8 0.6 0.5  0.9 0.6 0.5  1 0.6 0.5  0.1 0.7 0.5  0 0.7 0.5  0.2 0.7 0.5  0.3 0.7 0.5  0.4 0.7 0.5  0.5 0.7 0.5  0.6 0.7 0.5  0.7 0.7 0.5  0.8 0.7 0.5  0.9 0.7 0.5  1 0.7 0.5  0.1 0.8 0.5  0 0.8 0.5  0.2 0.8 0.5  0.3 0.8 0.5  0.4 0.8 0.5  0.5 0.8 0.5  0.6 0.8 0.5  0.7 0.8 0.5  0.8 0.8 0.5  0.9 0.8 0.5  1 0.8 0.5  0.1 0.3 0.6  0.1 0.2 0.6  0 0.2 0.6  0 0.3 0.6  0.2 0.3 0.6  0.2 0.2 0.6  0.3 0.3 0.6  0.3 0.2 0.6  0.4 0.3 0.6  0.4 0.2 0.6  0.5 0.3 0.6  0.5 0.2 0.6  0.6 0.3 0.6  0.6 0.2 0.6  0.7 0.3 0.6  0.7 0.2 0.6  0.8 0.3 0.6  0.8 0.2 0.6  0.9 0.3 0.6  0.9 0.2 0.6  1 0.3 0.6  1 0.2 0.6  0.1 0.4 0.6  0 0.4 0.6  0.2 0.4 0.6  0.3 0.4 0.6  0.4 0.4 0.6  0.5 0.4 0.6  0.6 0.4 0.6  0.7 0.4 0.6  0.8 0.4 0.6  0.9 0.4 0.6  1 0.4 0.6  0.1 0.5 0.6  0 0.5 0.6  0.2 0.5 0.6  0.3 0.5 0.6  0.4 0.5 0.6  0.5 0.5 0.6  0.6 0.5 0.6  0.7 0.5 0.6  0.8 0.5 0.6  0.9 0.5 0.6  1 0.5 0.6  0.1 0.6 0.6  0 0.6 0.6  0.2 0.6 0.6  0.3 0.6 0.6  0.4 0.6 0.6  0.5 0.6 0.6  0.6 0.6 0.6  0.7 0.6 0.6  0.8 0.6 0.6  0.9 0.6 0.6  1 0.6 0.6  0.1 0.7 0.6  0 0.7 0.6  0.2 0.7 0.6  0.3 0.7 0.6  0.4 0.7 0.6  0.5 0.7 0.6  0.6 0.7 0.6  0.7 0.7 0.6  0.8 0.7 0.6  0.9 0.7 0.6  1 0.7 0.6  0.1 0.8 0.6  0 0.8 0.6  0.2 0.8 0.6  0.3 0.8 0.6  0.4 0.8 0.6  0.5 0.8 0.6  0.6 0.8 0.6  0.7 0.8 0.6  0.8 0.8 0.6  0.9 0.8 0.6  1 0.8 0.6  0.1 0.3 0.7  0.1 0.2 0.7  0 0.2 0.7  0 0.3 0.7  0.2 0.3 0.7  0.2 0.2 0.7  0.3 0.3 0.7  0.3 0.2 0.7  0.4 0.3 0.7  0.4 0.2 0.7  0.5 0.3 0.7  0.5 0.2 0.7  0.6 0.3 0.7  0.6 0.2 0.7  0.7 0.3 0.7  0.7 0.2 0.7  0.8 0.3 0.7  0.8 0.2 0.7  0.9 0.3 0.7  0.9 0.2 0.7  1 0.3 0.7  1 0.2 0.7  0.1 0.4 0.7  0 0.4 0.7  0.2 0.4 0.7  0.3 0.4 0.7  0.4 0.4 0.7  0.5 0.4 0.7  0.6 0.4 0.7  0.7 0.4 0.7  0.8 0.4 0.7  0.9 0.4 0.7  1 0.4 0.7  0.1 0.5 0.7  0 0.5 0.7  0.2 0.5 0.7  0.3 0.5 0.7  0.4 0.5 0.7  0.5 0.5 0.7  0.6 0.5 0.7  0.7 0.5 0.7  0.8 0.5 0.7  0.9 0.5 0.7  1 0.5 0.7  0.1 0.6 0.7  0 0.6 0.7  0.2 0.6 0.7  0.3 0.6 0.7  0.4 0.6 0.7  0.5 0.6 0.7  0.6 0.6 0.7  0.7 0.6 0.7  0.8 0.6 0.7  0.9 0.6 0.7  1 0.6 0.7  0.1 0.7 0.7  0 0.7 0.7  0.2 0.7 0.7  0.3 0.7 0.7  0.4 0.7 0.7  0.5 0.7 0.7  0.6 0.7 0.7  0.7 0.7 0.7  0.8 0.7 0.7  0.9 0.7 0.7  1 0.7 0.7  0.1 0.8 0.7  0 0.8 0.7  0.2 0.8 0.7  0.3 0.8 0.7  0.4 0.8 0.7  0.5 0.8 0.7  0.6 0.8 0.7  0.7 0.8 0.7  0.8 0.8 0.7  0.9 0.8 0.7  1 0.8 0.7  0.1 0.3 0.8  0.1 0.2 0.8  0 0.2 0.8  0 0.3 0.8  0.2 0.3 0.8  0.2 0.2 0.8  0.3 0.3 0.8  0.3 0.2 0.8  0.4 0.3 0.8  0.4 0.2 0.8  0.5 0.3 0.8  0.5 0.2 0.8  0.6 0.3 0.8  0.6 0.2 0.8  0.7 0.3 0.8  0.7 0.2 0.8  0.8 0.3 0.8  0.8 0.2 0.8  0.9 0.3 0.8  0.9 0.2 0.8  1 0.3 0.8  1 0.2 0.8  0.1 0.4 0.8  0 0.4 0.8  0.2 0.4 0.8  0.3 0.4 0.8  0.4 0.4 0.8  0.5 0.4 0.8  0.6 0.4 0.8  0.7 0.4 0.8  0.8 0.4 0.8  0.9 0.4 0.8  1 0.4 0.8  0.1 0.5 0.8  0 0.5 0.8  0.2 0.5 0.8  0.3 0.5 0.8  0.4 0.5 0.8  0.5 0.5 0.8  0.6 0.5 0.8  0.7 0.5 0.8  0.8 0.5 0.8  0.9 0.5 0.8  1 0.5 0.8  0.1 0.6 0.8  0 0.6 0.8  0.2 0.6 0.8  0.3 0.6 0.8  0.4 0.6 0.8  0.5 0.6 0.8  0.6 0.6 0.8  0.7 0.6 0.8  0.8 0.6 0.8  0.9 0.6 0.8  1 0.6 0.8  0.1 0.7 0.8  0 0.7 0.8  0.2 0.7 0.8  0.3 0.7 0.8  0.4 0.7 0.8  0.5 0.7 0.8  0.6 0.7 0.8  0.7 0.7 0.8  0.8 0.7 0.8  0.9 0.7 0.8  1 0.7 0.8  0.1 0.8 0.8  0 0.8 0.8  0.2 0.8 0.8  0.3 0.8 0.8  0.4 0.8 0.8  0.5 0.8 0.8  0.6 0.8 0.8  0.7 0.8 0.8  0.8 0.8 0.8  0.9 0.8 0.8  1 0.8 0.8  </DataArray>
</Points>
<Cells>
[...]
<PointData  Vectors="f_23"> 
<DataArray  type="Float64"  Name="f_23"  NumberOfComponents="3" format="ascii">-5.5582507020043880e-05 9.2185648565421121e-05 2.1015950493119364e-04  -2.6564435116011623e-05 1.2151479773603422e-04 2.6527280128671595e-04  -2.5891501154737131e-05 1.1122981378684667e-04 2.4050099446799183e-04  3.2180423515579093e-02 4.3137099587554712e-05 2.1222247189025689e-05  1.7149438529688380e-05 1.1988933008951193e-04 2.3279931947901711e-04  4.7776841710513373e-06 9.3278358325373710e-05 1.6567725993336176e-04  -4.4768760669324196e-05 8.5638324374319515e-05 1.9467132065689198e-04  3.2340373136133631e-02 1.3417371378313573e-05 -2.1421380497523152e-05  5.4995456811296307e-05 1.7466309764626342e-04 3.6509424914120273e-04  5.7769589867646083e-05 1.6544815238303127e-04 3.4523159976866289e-04  3.1867669161973568e-02 -1.9775075852295107e-05 1.4816630327066507e-04  9.6636669789045151e-05 1.8472063046145947e-04 3.5446569686118203e-04  9.5628601405171973e-05 2.2795300005929798e-04 4.3629618941421275e-04  1.0170106089560038e-04 2.1206998695741164e-04 4.2192722971419618e-04  3.1851597374283752e-02 -7.7563108017051713e-05 1.9866255816701877e-04  1.4615177242462488e-04 2.5710065530283355e-04 4.5943750839618500e-04  1.0274474232817012e-04 2.7434146392886873e-04 4.8848068501398695e-04  1.1216082244288972e-04 2.4911204881573776e-04 4.7815352090246378e-04  3.1812843744566180e-02 -1.5608675290636269e-04 2.7838283101502018e-04  1.5986343142344745e-04 3.3311087223843574e-04 5.5690053138751151e-04  6.2468085664526320e-05 2.9528180034494168e-04 5.2642723700961158e-04  7.1785007277220037e-05 2.6668425186625056e-04 5.1839974586011706e-04  3.1774938499294643e-02 -2.5476038033054959e-04 3.8149536028071361e-04  1.1508621403633613e-04 3.9388614900998277e-04 6.4659367126732915e-04  -2.7603906114179450e-05 2.6695551596550912e-04 5.3952848727706381e-04  -2.5948181487308603e-05 2.4942193494590194e-04 5.2839200878338573e-04  3.1828497595777168e-02 -3.6301035311054003e-04 4.3523216791267267e-04  -6.1534156253989496e-06 3.9596295122808206e-04 7.1425209622227859e-04  -1.1702542239181465e-04 1.8787737027116088e-04 4.7535851601794322e-04  -1.3622709931269324e-04 1.8843442289544224e-04 4.6388043417169795e-04  3.2183447156355537e-02 -4.5776857489313342e-04 2.5903154489641050e-04  -1.7086334254782796e-04 3.0458032851660800e-04 7.0428275065426550e-04  -8.9422983276964501e-05 9.2090463763956661e-05 2.8252090990653746e-04  -1.4124933538828971e-04 1.0226316089502890e-04 2.8432598727648104e-04  3.3195437763107877e-02 -5.4478015353879780e-04 -4.4478447180595437e-04  -2.5197115489921171e-04 1.5349507077748543e-04 4.7997315439173867e-04  5.3048189983700834e-05 3.5198202331542387e-05 9.5560857702173689e-05  -3.1336693363053773e-06 3.6502587685607166e-05 1.2832263840980061e-04  3.5113698239586752e-02 -6.1419084728980941e-04 -1.5064004645840251e-03  -1.3790720991075910e-04 6.9687236190398483e-05 1.7392372319465226e-04  8.2947704988710453e-05 5.7239624491838814e-05 1.6337714003474211e-04  8.3566783628269336e-05 3.3381265358266798e-05 1.5234527363311738e-04  3.7459352332361105e-02 -3.9375381850277694e-04 -1.1361840141749003e-03  -5.2685446930503722e-05 5.1786471915973864e-05 2.1431480885689914e-04  3.5307892387897775e-05 1.0863056636133742e-04 2.3059175141219024e-04  7.5106439977104936e-02 -6.4302273188465009e-05 8.9565516028721978e-06  2.3061665118232793e-05 8.7498073097225045e-05 1.8590703952298899e-04  7.5007295817393321e-02 -1.4464185720003577e-05 -1.0874138812402476e-04  1.0056793614801000e-04 1.6101366150895929e-04 3.3562717790289881e-04  7.4795377060441620e-02 -1.0667377152962945e-04 1.4143427761525369e-04  1.3385294276108741e-04 1.9683011454684141e-04 4.1422850437493081e-04  7.4763927673958994e-02 -1.6616431986667560e-04 1.5645913829480807e-04  1.3232434135583741e-04 2.1602374328588030e-04 4.7628907273962484e-04  7.4694612931117871e-02 -2.5668621140172452e-04 1.7956609218512177e-04  7.2119799509712373e-05 2.1691393568193325e-04 5.2411731026408618e-04  7.4663622107647876e-02 -3.7020818445478794e-04 1.7970091579421908e-04  -5.5899963785371994e-05 1.9747205775414849e-04 5.3767757117905129e-04  7.4841277516557406e-02 -4.8891563467597197e-04 5.2862674199361557e-05  -1.9767871451078806e-04 1.5650391217051339e-04 4.7043177559721508e-04  7.5514749558044394e-02 -5.7801982809131550e-04 -3.6854948081076975e-04  -2.1288431260344166e-04 9.5186035543701303e-05 2.8471404481589810e-04  7.6984452977239326e-02 -6.0851311203043526e-04 -1.2785991026183232e-03  -6.1724087892781900e-05 3.1750761633822971e-05 1.3467788449276336e-04  7.9305480174555548e-02 -5.6400090616381135e-04 -2.4400371860293711e-03  4.1174351895744663e-05 2.8476545493878217e-05 1.5364692349392048e-04  8.2241857738780413e-02 -6.4804467234445666e-04 -2.0778951903501464e-03  9.6219368260512100e-05 1.0348232375723221e-04 2.1419327922747605e-04  9.0752867115708263e-02 -7.7091393411793645e-05 3.7321331099185718e-05  9.4416860464586653e-05 8.3392733801036851e-05 1.6952409546293302e-04  9.0690712980287386e-02 -2.1033141904868251e-05 -6.2108993086622453e-05  1.3893287824468098e-04 1.5598858978962886e-04 3.1257066988655576e-04  9.0427837883760673e-02 -7.6187484110060600e-05 1.5902802912094437e-04  1.5376758290806754e-04 1.8576029249596241e-04 3.8882714422913087e-04  9.0382619144084381e-02 -1.1037345510670060e-04 1.5905494523980017e-04  1.3519030220470601e-04 1.9317338603214824e-04 4.5122720404570319e-04  9.0284289017016003e-02 -1.7305442154656311e-04 1.4960260004509584e-04  5.9867996705146369e-05 1.8118985940806728e-04 5.0054554217826769e-04  9.0237494365714710e-02 -2.5350380512663374e-04 8.8599775009835614e-05  -8.1053325401804865e-05 1.5781674789280424e-04 5.1767960373732028e-04  9.0455262207230325e-02 -3.3496323253167802e-04 -1.3663156759739184e-04  -2.3670162459668635e-04 1.3324888315123558e-04 4.5674842719382197e-04  9.1254617685882389e-02 -3.8577305630110121e-04 -6.9349782565325860e-04  -2.6587979547410819e-04 1.0246084413715554e-04 2.7773172086296879e-04  9.2922977932786921e-02 -3.7224973902197432e-04 -1.6984451345319275e-03  -1.1703708826570486e-04 3.6142198161106455e-05 1.3274242970209946e-04  9.5455763005960551e-02 -3.0589814136148331e-04 -2.8517518601253703e-03  -1.3631611933825166e-05 4.9091239626240666e-05 1.5015127221193540e-04  9.8558722587425984e-02 -3.6738351113772035e-04 -2.6131246878891663e-03  1.5802515706705807e-04 9.9630004287316345e-05 1.9153873002966020e-04  7.5276176958356950e-02 -5.4092742705477715e-05 5.8588951467231238e-05  1.6491722625851805e-04 6.8952959872094094e-05 1.4844360952892194e-04  7.5360901812187159e-02 1.9861763466595230e-05 1.0433474819838875e-05  1.7817059159129067e-04 1.5970425404647690e-04 2.8152864978036712e-04  7.4960439418871122e-02 -1.0956412324922255e-05 1.6115331078067786e-04  1.7092888502067582e-04 1.9670713142957302e-04 3.5277034185850372e-04  7.4934362212011899e-02 -1.0992850364522387e-05 1.5537033976144218e-04  1.3091574624636351e-04 2.0904380084729273e-04 4.1153821151196607e-04  7.4850777703837634e-02 -2.7003057118347645e-05 1.3657887302357730e-04  4.1443085417492852e-05 1.9870046115128698e-04 4.5686874869911386e-04  7.4807371952834878e-02 -4.9503700777876914e-05 6.2489310180726147e-05  -1.0162210198467892e-04 1.7557414649579310e-04 4.7132009669516284e-04  7.5016390185599108e-02 -6.6897607307992192e-05 -1.7792656974221458e-04  -2.5723423738080757e-04 1.5564066779263000e-04 4.1615545991166033e-04  7.5789666909479442e-02 -6.0809529259629212e-05 -7.3653561276914323e-04  -3.0649401780475998e-04 1.3760408502502426e-04 2.5927180162097055e-04  7.7392093260667497e-02 -2.1644423307610561e-06 -1.6511569185250765e-03  -1.8197706182306603e-04 5.5561388701211557e-05 1.2283021389531426e-04  7.9816116122668784e-02 6.8060638030610166e-05 -2.6672012824439321e-03  -1.0167590292350360e-04 8.5722661682367213e-05 1.3589109077969286e-04  8.2566874314764588e-02 6.4670468429999829e-05 -2.4594353609740981e-03  2.2485983816399537e-04 8.4897655729684903e-05 1.6122350468257749e-04  3.2862741690373232e-02 1.9795055022831730e-06 1.2274282266639110e-04  2.2528231699286359e-04 4.9971454703689794e-05 1.2183247947411683e-04  3.3323517341405033e-02 2.7648106950782948e-04 1.6439304252153673e-04  2.2999526131004021e-04 1.5921530969393495e-04 2.4141304828103014e-04  3.2679584240900617e-02 6.2199286917257726e-05 1.7210470705968111e-04  2.0612160895348266e-04 2.1508192879305879e-04 3.0758307434366138e-04  3.2758339878506924e-02 1.1419069553496834e-04 1.7589759211046575e-04  1.4762305578107704e-04 2.4693152585877421e-04 3.6223484259046980e-04  3.2777129563996928e-02 1.6300260051650844e-04 1.7310731460811092e-04  4.1501406960312747e-05 2.5423605970205246e-04 4.0409608958138555e-04  3.2803032165798822e-02 2.1093671330733334e-04 1.3170767520055370e-04  -1.1202648865236780e-04 2.4234204666593090e-04 4.1826107242940710e-04  3.2976144296961142e-02 2.5944198538732318e-04 -2.9700122108573124e-05  -2.7516164850633316e-04 2.2176776108814259e-04 3.7608350802773743e-04  3.3519206681871014e-02 3.0376397216384950e-04 -4.0110238842791740e-04  -3.5854108111309083e-04 1.9588556475984235e-04 2.5015546101861711e-04  3.4668567746969838e-02 3.5015529337615876e-04 -1.0180965244856387e-03  -2.7151545049551291e-04 1.2735979316599831e-04 1.1424830993766002e-04  3.6526031910069326e-02 4.3067781956394917e-04 -1.7037339168043647e-03  -2.1964349516447003e-04 1.0869539275883189e-04 1.2288764887359821e-04  3.8288681426182115e-02 3.2327492834694253e-04 -1.3627233565711851e-03  1.9271128299751123e-04 7.2935027535553514e-05 1.3228285202215566e-04  2.1729617507600400e-04 5.5077167658796319e-05 1.1076613532456144e-04  1.4297448429754819e-04 7.3041572151907972e-05 7.1892042329115035e-05  2.1497560681569387e-04 4.7131574223630410e-05 8.0097662044148726e-05  2.2778823521647085e-04 1.5538479464766145e-04 1.9917648718477979e-04  1.9615661958830252e-04 1.2037673519739315e-04 2.0482444373703249e-04  2.1620077394222937e-04 2.2374689113245107e-04 2.5497997158616993e-04  2.0907092971246760e-04 1.8813498244879044e-04 2.7776597461476630e-04  1.7753088695744091e-04 2.6937503167905698e-04 2.9006633520979374e-04  1.9548312129211918e-04 2.3292973715320034e-04 3.4386937169472574e-04  9.6755913587510904e-05 2.8982045482258025e-04 3.1294097839114652e-04  1.3859442408893497e-04 2.5144835230298250e-04 4.0536732153734255e-04  -3.6453305314827821e-05 2.8654433657416054e-04 3.2135667939974595e-04  2.5838250444842076e-05 2.4610997928245103e-04 4.5212107985032524e-04  -2.0081428524743589e-04 2.6447425123176109e-04 3.0451971023365986e-04  -1.3973390137826834e-04 2.2641017462079048e-04 4.5977403425212098e-04  -3.1345246605617405e-04 2.2019756672346952e-04 2.4144626906353559e-04  -3.0133163496262448e-04 2.0091449267248970e-04 3.8991510637728958e-04  -2.9737609094310756e-04 1.5886774342802190e-04 1.3225236041308034e-04  -3.3718321706985765e-04 1.5735737888601786e-04 2.3252207464217819e-04  -2.8071144112300315e-04 1.1220621731985093e-04 1.2129551376450277e-04  -2.8745631398128699e-04 1.5687431052724692e-04 1.4124065873998744e-04  7.5160019539638523e-02 7.7966638928014898e-05 -1.2568193121789822e-04  1.6534634942026171e-04 1.3387498784274345e-04 2.0545414363502772e-04  1.5741904389406599e-04 1.0578642544077399e-04 1.3805430403479525e-04  7.4950454864672195e-02 4.4877683112780058e-05 1.6421972096909200e-04  7.4915288416498832e-02 -8.0535730264787003e-06 6.3332060300455001e-05  2.3179467865580512e-04 2.1481502466586886e-04 3.4262582571026545e-04  7.4906077591190959e-02 -9.7140018466984582e-05 1.5772053682745535e-04  2.8284168680945250e-04 3.0961458225846539e-04 4.9050904281360225e-04  7.4902838254640322e-02 -2.0332763370022622e-04 2.4213185201374978e-04  2.9448478351764553e-04 4.2650715462318195e-04 6.5195689948694530e-04  7.4887334430810915e-02 -3.4210590424699525e-04 3.2730197579865526e-04  2.1880044392651944e-04 5.5396565508494182e-04 8.2338150609532622e-04  7.4900047129353456e-02 -5.2602472934417787e-04 3.5715812820999329e-04  1.3245685337554378e-05 6.3301492282821119e-04 9.8812966616956886e-04  7.5083235427396644e-02 -7.2213326415184582e-04 1.4445303336406846e-04  -2.9421358783958054e-04 5.5298557833352688e-04 1.1066574390591697e-03  7.5896985609950576e-02 -9.1333430424417512e-04 -7.9815589942686994e-04  -5.2416760902074440e-04 3.0302974901757427e-04 9.3175358455657308e-04  7.7941814730741424e-02 -1.1786779972897609e-03 -2.5321315908773002e-03  -5.1086508534726538e-04 1.2594536745128454e-04 2.9996253589485808e-04  7.9682431364623468e-02 -7.1198415170220747e-04 -9.7699080827452116e-04  -5.0960146194414921e-04 8.9370810118870607e-05 3.8398160629645508e-04  1.4858950762548442e-01 -1.0690778862506960e-04 -2.2629431743947714e-04  1.4855215834003588e-01 -2.5543497072760627e-05 7.7118349184272537e-05  1.4837097987822129e-01 -1.3833631284853562e-04 3.0687848163100123e-05  1.4827676010298554e-01 -2.3470269846028911e-04 8.4723240955475335e-05  1.4818682456784205e-01 -3.8026525213397290e-04 6.4749470840223214e-05  1.4812338047919626e-01 -5.7681969618832434e-04 -6.3236978182084407e-05  1.4823708066702190e-01 -8.2901316022014864e-04 -4.2743377544270512e-04  1.4883625343881324e-01 -1.1035161000922107e-03 -1.2272170862805331e-03  1.5036551232103554e-01 -1.2819455654771797e-03 -2.7885003884414480e-03  1.5282406297147294e-01 -1.2074631948047079e-03 -4.8994574014699123e-03  1.5480198019430166e-01 -1.3788395771841329e-03 -3.5154936118203684e-03  1.7509189500607947e-01 -1.1955900537408602e-04 -2.0855815847692610e-04  1.7519573868078897e-01 -6.1960605758165169e-05 1.0916312057575989e-04  1.7485010778097249e-01 -1.1799896568333248e-04 6.3252358481980059e-05  1.7471734483085352e-01 -1.7803740537692284e-04 9.3663886911009466e-05  1.7456615998690289e-01 -2.8824213449159708e-04 1.6010785908258787e-05  1.7444555810150003e-01 -4.4295720190834427e-04 -2.3251117704485458e-04  1.7455309937860328e-01 -6.4053395372516871e-04 -8.1874369362875657e-04  1.7528319024703229e-01 -8.4857083271695864e-04 -1.9486901616908839e-03  1.7711038837026868e-01 -9.5744294437116295e-04 -3.8822626399200116e-03  1.7991588653855234e-01 -8.3017217962097674e-04 -6.1379371157467997e-03  1.8198519437853669e-01 -1.0033769865403488e-03 -5.1189431398240021e-03  1.4860076047297688e-01 -6.3496153721047816e-05 -1.8380626213996480e-04  1.4890649609407844e-01 3.3521193655165807e-06 1.4216313208766104e-04  1.4836531427080535e-01 -2.2776622823683239e-05 7.3516438907673273e-05  1.4825839747964326e-01 -3.7484001049181157e-05 9.4638482829631214e-05  1.4812411514417803e-01 -8.4068375647879307e-05 9.1867234980136016e-06  1.4799992150232519e-01 -1.5691078241729113e-04 -2.4505552413769867e-04  1.4807963612176578e-01 -2.5272311404749893e-04 -8.4037339572603142e-04  1.4877830126834835e-01 -3.3918079878703420e-04 -2.0043212919751909e-03  1.5057239705192643e-01 -3.5157072387058673e-04 -3.9323064947663329e-03  1.5332361697719704e-01 -2.4260513783781387e-04 -5.8635399521160762e-03  1.5500480456146187e-01 -3.7594323721354720e-04 -5.0819684477873680e-03  7.5175307255590046e-02 2.7276094095020141e-05 -1.1374676849134386e-04  7.5867761197114136e-02 2.9311449530389271e-04 2.1788352165382272e-04  7.5073449571403023e-02 7.0856030799947256e-05 8.3576133389192000e-05  7.5105725545993027e-02 1.0733035445541211e-04 1.2343767075785540e-04  7.5117450475754952e-02 1.3514456393404870e-04 9.2528619707574027e-05  7.5115606328536075e-02 1.5053415628413512e-04 -4.8673200022073509e-05  7.5217783957731252e-02 1.4962195350708986e-04 -4.2708222504907119e-04  7.5674968425388692e-02 1.4703574402111328e-04 -1.2263012492165189e-03  7.6914331822272475e-02 1.5837358589179136e-04 -2.4133792683979213e-03  7.9091313615541989e-02 3.0262512026487965e-04 -3.6753510216763646e-03  7.9764376658729694e-02 9.6754675894821640e-05 -2.8736509556154767e-03  3.3607314752648310e-04 3.9173830412305325e-05 8.8797742338947756e-05  3.3565469590453133e-04 3.4619618856411796e-05 9.3678489504991168e-05  2.9940940652216038e-04 9.0297106530661659e-05 2.1541603271201491e-04  2.8924345762662909e-04 1.5119140472271843e-04 3.3005986093239450e-04  2.7567265099779682e-04 1.9089632784437000e-04 4.5065689294556863e-04  2.1965735748697180e-04 2.0474312986441736e-04 5.8125579034867098e-04  8.7306517003125797e-05 1.9449314804498584e-04 7.0513035292345673e-04  -1.4131051276707561e-04 1.7357538675344885e-04 7.7750420045011326e-04  -4.1737291732977649e-04 1.5194745736348247e-04 7.2693509030646256e-04  -5.5559145952698431e-04 1.1858568604225685e-04 4.9554251993314013e-04  -5.0892634235387283e-04 1.4842279837106259e-04 3.3348797715795285e-04  9.0889903864105073e-02 8.0107678741771240e-05 -8.3898096310698717e-05  3.0573927125122268e-04 1.4713288991300363e-04 1.7623112501219615e-04  2.9236823163108561e-04 1.1185889104546540e-04 1.1245775194238197e-04  9.0691111954477419e-02 5.9725269716711844e-05 1.7294186892181199e-04  9.0686414062070009e-02 2.9752337998633369e-06 6.1493180611467814e-05  3.8524498938621242e-04 2.4088281344109575e-04 3.1207671946063294e-04  9.0714946696238086e-02 -8.3023219818002350e-05 1.5173294061936169e-04  4.6075112434881989e-04 3.5825332997201060e-04 4.7085983547301224e-04  9.0745598502164057e-02 -1.9031730150052741e-04 1.9817950169026023e-04  5.0542908475063148e-04 5.1776312205749331e-04 6.5903276514843370e-04  9.0716600978775833e-02 -3.5826692943621857e-04 2.0231789839283382e-04  4.4866540293162974e-04 7.2857315762421603e-04 8.7738432567129650e-04  9.0530928914710568e-02 -6.7471214596544161e-04 1.7341166214714790e-04  1.6970929145800406e-04 9.5852995508402333e-04 1.1089010404051523e-03  9.0188345637836342e-02 -1.2407920617020648e-03 1.7379859616829940e-04  -4.1085562278561313e-04 1.0538008956348774e-03 1.3605068828812807e-03  9.0319106934473217e-02 -1.8290643725168375e-03 4.8444367581837648e-05  -8.8903315795454908e-04 7.4331432450883931e-04 1.7874866553537214e-03  9.2171540502705776e-02 -2.7259231422050766e-03 -1.6395434472803857e-03  -9.9415244113757535e-04 3.0509695278234242e-04 7.0959016108222207e-04  9.3418157879611677e-02 -2.6043181043061739e-03 2.0045337970259593e-03  -1.2021027590047250e-03 2.0336627560241111e-04 5.4676224335800530e-04  1.7517410395903574e-01 -1.1705093271995353e-04 -1.7317038965749992e-04  1.7525464986637448e-01 -1.0628045197386573e-05 9.7646289433414159e-05  1.7498322227052304e-01 -1.3223093446651567e-04 5.4306505949078877e-06  1.7489276433132267e-01 -2.4551509518539746e-04 5.7294657920750165e-05  1.7476562450075550e-01 -4.2636438745354460e-04 -2.0604458224724784e-05  1.7455646085359097e-01 -7.0860684348819972e-04 -2.9560500787144617e-04  1.7425390958097600e-01 -1.1794196871544886e-03 -8.8648920755291698e-04  1.7405412031203557e-01 -1.9126362437377937e-03 -1.8294516065053034e-03  1.7472894651500204e-01 -2.7045780716684069e-03 -3.1298270767712612e-03  1.7642570998608656e-01 -2.9168992106405858e-03 -5.9592238548118416e-03  1.7695164931499022e-01 -3.6534378955015898e-03 -2.8970734973348703e-03  2.0545691852602929e-01 -1.3235023810638212e-04 -1.8131001688096867e-04  2.0571897600254802e-01 -5.0253166815430618e-05 1.1227568067150892e-04  2.0523005492935703e-01 -1.1881654194124055e-04 1.5413817737605938e-05  2.0507009264584219e-01 -1.9760866918141980e-04 4.3368823136477174e-05  2.0483988633929798e-01 -3.4717391906321994e-04 -1.0238682448858657e-04  2.0449571248163592e-01 -5.8072524006141935e-04 -5.3156275243319113e-04  2.0406146962133748e-01 -9.4741107614341308e-04 -1.4430926039648573e-03  2.0377181023712373e-01 -1.4793217940270273e-03 -2.9669979080716937e-03  2.0452242564247999e-01 -2.0167543125956251e-03 -5.1138836945793936e-03  2.0649330417399733e-01 -1.9715362977425614e-03 -8.6296380869861217e-03  2.0700463233081701e-01 -2.5712779359892317e-03 -6.5788041749701336e-03  1.7505997758893599e-01 -6.1729396870233432e-05 -1.8547509877677243e-04  1.7551828106001507e-01 2.2204465121056619e-05 1.1562070143139780e-04  1.7483740896920300e-01 -2.5661426315718130e-05 7.9186981712302586e-06  1.7469723958661326e-01 -5.4202208105494948e-05 2.6431994820484882e-05  1.7447950232252979e-01 -1.3353158923428365e-04 -1.2432706224817797e-04  1.7411140350639306e-01 -2.6087456049236652e-0