<?xml version="1.0"?>
<VTKFile type="UnstructuredGrid"  version="0.1"  >
<UnstructuredGrid>
<Piece  NumberOfPoints="533" NumberOfCells="2122">
<Points>
<DataArray  type="Float64"  NumberOfComponents="3"  format="ascii">0 0.2 0.2  0.1 0.2 0.2  0.1 0.3 0.2  0.1 0.3 0.3  0.1 0.2 0.3  0 0.2 0.3  0 0.3 0.2  0 0.3 0.3  0.2 0.2 0.2  0.2 0.3 0.2  0.2 0.3 0.3  0.2 0.2 0.3  0.3 0.2 0.2  0.3 0.3 0.2  0.3 0.3 0.3  0.3 0.2 0.3  0.4 0.2 0.2  0.4 0.3 0.2  0.4 0.3 0.3  0.4 0.2 0.3  0.5 0.2 0.2  0.5 0.3 0.2  0.5 0.3 0.3  0.5 0.2 0.3  0.6 0.2 0.2  0.6 0.3 0.2  0.6 0.3 0.3  0.6 0.2 0.3  0.7 0.2 0.2  0.7 0.3 0.2  0.7 0.3 0.3  0.7 0.2 0.3  0.8 0.2 0.2  0.8 0.3 0.2  0.8 0.3 0.3  0.8 0.2 0.3  0.9 0.2 0.2  0.9 0.3 0.2  0.9 0.3 0.3  0.9 0.2 0.3  1 0.2 0.2  1 0.3 0.2  1 0.3 0.3  1 0.2 0.3  0.1 0.4 0.2  0.1 0.4 0.3  0 0.4 0.2  0 0.4 0.3  0.2 0.4 0.2  0.2 0.4 0.3  0.3 0.4 0.2  0.3 0.4 0.3  0.4 0.4 0.2  0.4 0.4 0.3  0.5 0.4 0.2  0.5 0.4 0.3  0.6 0.4 0.2  0.6 0.4 0.3  0.7 0.4 0.2  0.7 0.4 0.3  0.8 0.4 0.2  0.8 0.4 0.3  0.9 0.4 0.2  0.9 0.4 0.3  1 0.4 0.2  1 0.4 0.3  0.1 0.5 0.2  0.1 0.5 0.3  0 0.5 0.2  0 0.5 0.3  0.2 0.5 0.2  0.2 0.5 0.3  0.3 0.5 0.2  0.3 0.5 0.3  0.4 0.5 0.2  0.4 0.5 0.3  0.5 0.5 0.2  0.5 0.5 0.3  0.6 0.5 0.2  0.6 0.5 0.3  0.7 0.5 0.2  0.7 0.5 0.3  0.8 0.5 0.2  0.8 0.5 0.3  0.9 0.5 0.2  0.9 0.5 0.3  1 0.5 0.2  1 0.5 0.3  0.1 0.6 0.2  0.1 0.6 0.3  0 0.6 0.2  0 0.6 0.3  0.2 0.6 0.2  0.2 0.6 0.3  0.3 0.6 0.2  0.3 0.6 0.3  0.4 0.6 0.2  0.4 0.6 0.3  0.5 0.6 0.2  0.5 0.6 0.3  0.6 0.6 0.2  0.6 0.6 0.3  0.7 0.6 0.2  0.7 0.6 0.3  0.8 0.6 0.2  0.8 0.6 0.3  0.9 0.6 0.2  0.9 0.6 0.3  1 0.6 0.2  1 0.6 0.3  0.1 0.7 0.2  0.1 0.7 0.3  0 0.7 0.2  0 0.7 0.3  0.2 0.7 0.2  0.2 0.7 0.3  0.3 0.7 0.2  0.3 0.7 0.3  0.4 0.7 0.2  0.4 0.7 0.3  0.5 0.7 0.2  0.5 0.7 0.3  0.6 0.7 0.2  0.6 0.7 0.3  0.7 0.7 0.2  0.7 0.7 0.3  0.8 0.7 0.2  0.8 0.7 0.3  0.9 0.7 0.2  0.9 0.7 0.3  1 0.7 0.2  1 0.7 0.3  0.1 0.8 0.2  0.1 0.8 0.3  0 0.8 0.2  0 0.8 0.3  0.2 0.8 0.2  0.2 0.8 0.3  0.3 0.8 0.2  0.3 0.8 0.3  0.4 0.8 0.2  0.4 0.8 0.3  0.5 0.8 0.2  0.5 0.8 0.3  0.6 0.8 0.2  0.6 0.8 0.3  0.7 0.8 0.2  0.7 0.8 0.3  0.8 0.8 0.2  0.8 0.8 0.3  0.9 0.8 0.2  0.9 0.8 0.3  1 0.8 0.2  1 0.8 0.3  0.1 0.3 0.4  0.1 0.2 0.4  0 0.2 0.4  0 0.3 0.4  0.2 0.3 0.4  0.2 0.2 0.4  0.3 0.3 0.4  0.3 0.2 0.4  0.4 0.3 0.4  0.4 0.2 0.4  0.5 0.3 0.4  0.5 0.2 0.4  0.6 0.3 0.4  0.6 0.2 0.4  0.7 0.3 0.4  0.7 0.2 0.4  0.8 0.3 0.4  0.8 0.2 0.4  0.9 0.3 0.4  0.9 0.2 0.4  1 0.3 0.4  1 0.2 0.4  0.1 0.4 0.4  0 0.4 0.4  0.2 0.4 0.4  0.3 0.4 0.4  0.4 0.4 0.4  0.5 0.4 0.4  0.6 0.4 0.4  0.7 0.4 0.4  0.8 0.4 0.4  0.9 0.4 0.4  1 0.4 0.4  0.1 0.5 0.4  0 0.5 0.4  0.2 0.5 0.4  0.3 0.5 0.4  0.4 0.5 0.4  0.5 0.5 0.4  0.6 0.5 0.4  0.7 0.5 0.4  0.8 0.5 0.4  0.9 0.5 0.4  1 0.5 0.4  0.1 0.6 0.4  0 0.6 0.4  0.2 0.6 0.4  0.3 0.6 0.4  0.4 0.6 0.4  0.5 0.6 0.4  0.6 0.6 0.4  0.7 0.6 0.4  0.8 0.6 0.4  0.9 0.6 0.4  1 0.6 0.4  0.1 0.7 0.4  0 0.7 0.4  0.2 0.7 0.4  0.3 0.7 0.4  0.4 0.7 0.4  0.5 0.7 0.4  0.6 0.7 0.4  0.7 0.7 0.4  0.8 0.7 0.4  0.9 0.7 0.4  1 0.7 0.4  0.1 0.8 0.4  0 0.8 0.4  0.2 0.8 0.4  0.3 0.8 0.4  0.4 0.8 0.4  0.5 0.8 0.4  0.6 0.8 0.4  0.7 0.8 0.4  0.8 0.8 0.4  0.9 0.8 0.4  1 0.8 0.4  0.1 0.3 0.5  0.1 0.2 0.5  0 0.2 0.5  0 0.3 0.5  0.2 0.3 0.5  0.2 0.2 0.5  0.3 0.3 0.5  0.3 0.2 0.5  0.4 0.3 0.5  0.4 0.2 0.5  0.5 0.3 0.5  0.5 0.2 0.5  0.6 0.3 0.5  0.6 0.2 0.5  0.7 0.3 0.5  0.7 0.2 0.5  0.8 0.3 0.5  0.8 0.2 0.5  0.9 0.3 0.5  0.9 0.2 0.5  1 0.3 0.5  1 0.2 0.5  0.1 0.4 0.5  0 0.4 0.5  0.2 0.4 0.5  0.3 0.4 0.5  0.4 0.4 0.5  0.5 0.4 0.5  0.6 0.4 0.5  0.7 0.4 0.5  0.8 0.4 0.5  0.9 0.4 0.5  1 0.4 0.5  0.1 0.5 0.5  0 0.5 0.5  0.2 0.5 0.5  0.3 0.5 0.5  0.4 0.5 0.5  0.5 0.5 0.5  0.6 0.5 0.5  0.7 0.5 0.5  0.8 0.5 0.5  0.9 0.5 0.5  1 0.5 0.5  0.1 0.6 0.5  0 0.6 0.5  0.2 0.6 0.5  0.3 0.6 0.5  0.4 0.6 0.5  0.5 0.6 0.5  0.6 0.6 0.5  0.7 0.6 0.5  0.8 0.6 0.5  0.9 0.6 0.5  1 0.6 0.5  0.1 0.7 0.5  0 0.7 0.5  0.2 0.7 0.5  0.3 0.7 0.5  0.4 0.7 0.5  0.5 0.7 0.5  0.6 0.7 0.5  0.7 0.7 0.5  0.8 0.7 0.5  0.9 0.7 0.5  1 0.7 0.5  0.1 0.8 0.5  0 0.8 0.5  0.2 0.8 0.5  0.3 0.8 0.5  0.4 0.8 0.5  0.5 0.8 0.5  0.6 0.8 0.5  0.7 0.8 0.5  0.8 0.8 0.5  0.9 0.8 0.5  1 0.8 0.5  0.1 0.3 0.6  0.1 0.2 0.6  0 0.2 0.6  0 0.3 0.6  0.2 0.3 0.6  0.2 0.2 0.6  0.3 0.3 0.6  0.3 0.2 0.6  0.4 0.3 0.6  0.4 0.2 0.6  0.5 0.3 0.6  0.5 0.2 0.6  0.6 0.3 0.6  0.6 0.2 0.6  0.7 0.3 0.6  0.7 0.2 0.6  0.8 0.3 0.6  0.8 0.2 0.6  0.9 0.3 0.6  0.9 0.2 0.6  1 0.3 0.6  1 0.2 0.6  0.1 0.4 0.6  0 0.4 0.6  0.2 0.4 0.6  0.3 0.4 0.6  0.4 0.4 0.6  0.5 0.4 0.6  0.6 0.4 0.6  0.7 0.4 0.6  0.8 0.4 0.6  0.9 0.4 0.6  1 0.4 0.6  0.1 0.5 0.6  0 0.5 0.6  0.2 0.5 0.6  0.3 0.5 0.6  0.4 0.5 0.6  0.5 0.5 0.6  0.6 0.5 0.6  0.7 0.5 0.6  0.8 0.5 0.6  0.9 0.5 0.6  1 0.5 0.6  0.1 0.6 0.6  0 0.6 0.6  0.2 0.6 0.6  0.3 0.6 0.6  0.4 0.6 0.6  0.5 0.6 0.6  0.6 0.6 0.6  0.7 0.6 0.6  0.8 0.6 0.6  0.9 0.6 0.6  1 0.6 0.6  0.1 0.7 0.6  0 0.7 0.6  0.2 0.7 0.6  0.3 0.7 0.6  0.4 0.7 0.6  0.5 0.7 0.6  0.6 0.7 0.6  0.7 0.7 0.6  0.8 0.7 0.6  0.9 0.7 0.6  1 0.7 0.6  0.1 0.8 0.6  0 0.8 0.6  0.2 0.8 0.6  0.3 0.8 0.6  0.4 0.8 0.6  0.5 0.8 0.6  0.6 0.8 0.6  0.7 0.8 0.6  0.8 0.8 0.6  0.9 0.8 0.6  1 0.8 0.6  0.1 0.3 0.7  0.1 0.2 0.7  0 0.2 0.7  0 0.3 0.7  0.2 0.3 0.7  0.2 0.2 0.7  0.3 0.3 0.7  0.3 0.2 0.7  0.4 0.3 0.7  0.4 0.2 0.7  0.5 0.3 0.7  0.5 0.2 0.7  0.6 0.3 0.7  0.6 0.2 0.7  0.7 0.3 0.7  0.7 0.2 0.7  0.8 0.3 0.7  0.8 0.2 0.7  0.9 0.3 0.7  0.9 0.2 0.7  1 0.3 0.7  1 0.2 0.7  0.1 0.4 0.7  0 0.4 0.7  0.2 0.4 0.7  0.3 0.4 0.7  0.4 0.4 0.7  0.5 0.4 0.7  0.6 0.4 0.7  0.7 0.4 0.7  0.8 0.4 0.7  0.9 0.4 0.7  1 0.4 0.7  0.1 0.5 0.7  0 0.5 0.7  0.2 0.5 0.7  0.3 0.5 0.7  0.4 0.5 0.7  0.5 0.5 0.7  0.6 0.5 0.7  0.7 0.5 0.7  0.8 0.5 0.7  0.9 0.5 0.7  1 0.5 0.7  0.1 0.6 0.7  0 0.6 0.7  0.2 0.6 0.7  0.3 0.6 0.7  0.4 0.6 0.7  0.5 0.6 0.7  0.6 0.6 0.7  0.7 0.6 0.7  0.8 0.6 0.7  0.9 0.6 0.7  1 0.6 0.7  0.1 0.7 0.7  0 0.7 0.7  0.2 0.7 0.7  0.3 0.7 0.7  0.4 0.7 0.7  0.5 0.7 0.7  0.6 0.7 0.7  0.7 0.7 0.7  0.8 0.7 0.7  0.9 0.7 0.7  1 0.7 0.7  0.1 0.8 0.7  0 0.8 0.7  0.2 0.8 0.7  0.3 0.8 0.7  0.4 0.8 0.7  0.5 0.8 0.7  0.6 0.8 0.7  0.7 0.8 0.7  0.8 0.8 0.7  0.9 0.8 0.7  1 0.8 0.7  0.1 0.3 0.8  0.1 0.2 0.8  0 0.2 0.8  0 0.3 0.8  0.2 0.3 0.8  0.2 0.2 0.8  0.3 0.3 0.8  0.3 0.2 0.8  0.4 0.3 0.8  0.4 0.2 0.8  0.5 0.3 0.8  0.5 0.2 0.8  0.6 0.3 0.8  0.6 0.2 0.8  0.7 0.3 0.8  0.7 0.2 0.8  0.8 0.3 0.8  0.8 0.2 0.8  0.9 0.3 0.8  0.9 0.2 0.8  1 0.3 0.8  1 0.2 0.8  0.1 0.4 0.8  0 0.4 0.8  0.2 0.4 0.8  0.3 0.4 0.8  0.4 0.4 0.8  0.5 0.4 0.8  0.6 0.4 0.8  0.7 0.4 0.8  0.8 0.4 0.8  0.9 0.4 0.8  1 0.4 0.8  0.1 0.5 0.8  0 0.5 0.8  0.2 0.5 0.8  0.3 0.5 0.8  0.4 0.5 0.8  0.5 0.5 0.8  0.6 0.5 0.8  0.7 0.5 0.8  0.8 0.5 0.8  0.9 0.5 0.8  1 0.5 0.8  0.1 0.6 0.8  0 0.6 0.8  0.2 0.6 0.8  0.3 0.6 0.8  0.4 0.6 0.8  0.5 0.6 0.8  0.6 0.6 0.8  0.7 0.6 0.8  0.8 0.6 0.8  0.9 0.6 0.8  1 0.6 0.8  0.1 0.7 0.8  0 0.7 0.8  0.2 0.7 0.8  0.3 0.7 0.8  0.4 0.7 0.8  0.5 0.7 0.8  0.6 0.7 0.8  0.7 0.7 0.8  0.8 0.7 0.8  0.9 0.7 0.8  1 0.7 0.8  0.1 0.8 0.8  0 0.8 0.8  0.2 0.8 0.8  0.3 0.8 0.8  0.4 0.8 0.8  </DataArray>
</Points>
<Cells>
[...]
<PointData  Vectors="f_23"> 
<DataArray  type="Float64"  Name="f_23"  NumberOfComponents="3" format="ascii">1.4634338457399088e-03 8.1952637801649430e-05 1.0556995462370779e-04  1.3807640421438136e-03 1.3848482052623742e-04 1.6545747294074569e-04  1.4676345514689380e-03 1.6459582860881437e-04 1.9399107432460503e-04  4.4203003598329925e-02 -3.6827217586801991e-04 -3.4829954616975964e-04  1.4919535034605515e-03 1.8247853795891079e-04 2.0799197678755753e-04  1.5743063259092947e-03 1.6803170913637524e-04 1.3254082092533796e-04  1.5545403524624760e-03 1.0940830666689977e-04 1.8261708425412642e-04  4.2332006477625236e-02 -4.3409943620325789e-04 -4.3562683603615837e-04  1.1437919452829902e-03 1.8911087027897715e-04 2.2016327504253841e-04  1.2484834997300682e-03 2.2537265758644702e-04 2.5938569730774827e-04  4.5054755495222885e-02 -4.6832061536886555e-04 -2.6498206685942618e-04  1.2858777921888368e-03 2.5403597609357695e-04 3.0114186332369936e-04  7.2890333997458834e-04 2.5268486589761016e-04 2.8656938017473027e-04  8.3763257120748511e-04 2.8372145139451250e-04 3.1821770687906839e-04  4.4809128423436859e-02 -3.2956903357251184e-04 -1.9161748783021594e-07  8.9118175264836508e-04 3.2865946052397374e-04 4.0757882891505234e-04  2.2158973305897836e-04 3.0373125594253855e-04 3.5848010551937221e-04  3.2329862317478182e-04 3.1909834777758958e-04 3.7332091941446634e-04  4.4395531754608239e-02 -1.8940959814154224e-04 3.3571909542959012e-04  3.9180463734854752e-04 3.9353849512071035e-04 5.1826772899910250e-04  -3.2950955437530984e-04 3.1915230323831977e-04 4.3518729139618807e-04  -2.4275806671296204e-04 3.2064113958771490e-04 4.2960839109711422e-04  4.3787828511484703e-02 -9.4531413877441630e-05 6.7425696044882532e-04  -1.7063424692047701e-04 4.2996163409143460e-04 6.3339422493542533e-04  -8.7622356215662494e-04 2.8206175622286271e-04 4.9739630410999792e-04  -8.1244008754676822e-04 2.8184001598053628e-04 4.7276803862618925e-04  4.3088587635109463e-02 -5.3397683371004299e-05 9.0700169464615120e-04  -7.6664676295899411e-04 4.0670975376634264e-04 7.3753409905146232e-04  -1.3242136777356893e-03 1.9775837288669415e-04 4.7323929475554557e-04  -1.2978391835482372e-03 2.0469635173793851e-04 4.4680206110601152e-04  4.2556098184292623e-02 -2.6038403658744272e-05 8.5826462838000642e-04  -1.3233957715219923e-03 3.0507220656646417e-04 7.5595510477383262e-04  -1.5216034443874561e-03 9.6653275567692103e-05 2.9759288594328939e-04  -1.5474807259126342e-03 1.1063709217906602e-04 2.9384668169357052e-04  4.2522029301296685e-02 1.7047558673183332e-05 2.7823220041296341e-04  -1.6726626679877757e-03 1.5651331901942302e-04 5.3074361131028893e-04  -1.4754065687067881e-03 3.8335486806161643e-05 1.0122439000511702e-04  -1.5222001845143736e-03 4.0143332060937197e-05 1.3516449397857333e-04  4.3030417182795426e-02 1.3648676253872922e-04 -5.9244137842923107e-04  -1.6828945936771399e-03 7.3527645162682449e-05 1.9810580972833258e-04  -1.4815799834277568e-03 6.5598233444323203e-05 1.8883421319686443e-04  -1.4678807472183681e-03 3.7333494734999533e-05 1.6886291135987614e-04  4.3846203349886599e-02 -4.2544312747247429e-05 -5.1031112151172185e-04  -1.6352841156802927e-03 5.3268374805613025e-05 2.5317495820622145e-04  1.5616516148521283e-03 2.3057126256653950e-04 3.0852007201482109e-04  8.9886957599587189e-02 -2.3975463089370800e-04 -4.4534261629440932e-04  1.6681803557987960e-03 1.6591667837038022e-04 2.8278312588453955e-04  8.8581700725306745e-02 -1.5095520479395340e-03 -5.0196064542462116e-04  1.3252450930043851e-03 3.1689518204005028e-04 4.0111149777247314e-04  9.0670747144348432e-02 -2.5544260643642293e-04 -4.1714211047030674e-04  8.8252927339329808e-04 3.6568434412856041e-04 4.5791960951057379e-04  9.0458626068874962e-02 -1.6967347526531935e-04 -7.5932627605674561e-05  3.3106019565694501e-04 3.6567894751731583e-04 4.8695430045267283e-04  8.9996922347741828e-02 -6.8422581895523374e-05 3.2483513008212144e-04  -2.7110458000798715e-04 3.2404985566388103e-04 5.0862192209412350e-04  8.9396383379663588e-02 -3.7667568431583911e-05 6.2818980251107867e-04  -8.7226226728158039e-04 2.5616121023398113e-04 5.1685917291791842e-04  8.8880417666333866e-02 -6.6443658328822717e-05 6.9576027350984012e-04  -1.3802700223812965e-03 1.7853063105480700e-04 4.6284632697031068e-04  8.8773870463707730e-02 -5.7362844852930586e-05 4.0881480218833325e-04  -1.6314079405946240e-03 1.0184284705431110e-04 2.9661483190970389e-04  8.9283812742047150e-02 8.4273011465686091e-05 -3.0579192493340946e-04  -1.5857933566057573e-03 3.5277378256718870e-05 1.3983360505523838e-04  9.0175606752957091e-02 3.3796988736869862e-04 -1.0844008051894046e-03  -1.5124114455273077e-03 2.8316643572818794e-05 1.7140184538496942e-04  9.1475579793485307e-02 -2.9771349316898364e-04 -1.0351101278726024e-03  1.6865384529983697e-03 2.4703175000301438e-04 4.0846686184985262e-04  1.0577348495424940e-01 -3.3448037642302330e-04 -6.8759255997668199e-04  1.8248376837820557e-03 1.9012664312436335e-04 3.6129760093448615e-04  1.0466934486363208e-01 -1.4278976487037565e-03 -8.5633804749205922e-04  1.3998877195217634e-03 3.4556473130013251e-04 5.3513304738452352e-04  1.0651830325146357e-01 -4.3486218039808332e-05 -6.2578623055118364e-04  8.9969817305160548e-04 3.8635687534674905e-04 5.9187235714675945e-04  1.0629105794463127e-01 1.1108200895199505e-04 -2.3545787474737244e-04  2.9550743214265963e-04 3.6105231372537380e-04 5.8968858070785983e-04  1.0584508815426300e-01 2.1768229561983064e-04 2.8039947424543038e-04  -3.4011520685749342e-04 2.8861047600425887e-04 5.6718503618063618e-04  1.0523140450779757e-01 2.2191554869951618e-04 5.9748671048203469e-04  -9.4984092893843569e-04 2.0126533100289895e-04 5.3356294747146306e-04  1.0477415943830808e-01 1.5279170279745171e-04 5.7507427975324766e-04  -1.4519785958276548e-03 1.3126595205902690e-04 4.5567702975826717e-04  1.0486360788624688e-01 1.3721902273487114e-04 1.8045968730656049e-04  -1.6966467065168273e-03 8.8244764157145565e-05 2.8950515641524302e-04  1.0560869556072044e-01 3.1081418204832316e-04 -5.3514873956065398e-04  -1.6393106902909851e-03 3.2670283083573784e-05 1.3799364503851353e-04  1.0654977144610785e-01 6.3978424998200830e-04 -1.1636257018504551e-03  -1.5618713835445538e-03 4.0318192407156094e-05 1.7058198686782213e-04  1.0766824864846476e-01 -1.6539236600445387e-04 -1.3352550304455671e-03  1.8190070255533080e-03 2.1691725224013710e-04 4.5000390979160754e-04  9.0199080483697000e-02 5.6223276616156682e-06 -8.1739923658841478e-04  1.9869745718376652e-03 1.6984389742354721e-04 3.8185789616938809e-04  8.9269724394943559e-02 -6.3641069524959337e-04 -1.1306771568393671e-03  1.4701458525253753e-03 3.0971210207778526e-04 5.9702317458603358e-04  9.1007649202053190e-02 1.8596318931151607e-04 -7.5569267632481730e-04  9.0669665967965326e-04 3.3795050103919419e-04 6.5848883666557400e-04  9.0816710986222654e-02 3.0374024204881176e-04 -3.1737566204567832e-04  2.4571022232726999e-04 3.0258323758278839e-04 6.3513642900093256e-04  9.0349683905881426e-02 3.6848045626138666e-04 3.2057565943115413e-04  -4.2087867755692205e-04 2.2318228964858351e-04 5.7662852128433984e-04  8.9641086843558496e-02 3.4226708089802666e-04 6.6933509257445338e-04  -1.0234067181185873e-03 1.3504174258638843e-04 5.0599214162734486e-04  8.9108666475669521e-02 2.5769010870197161e-04 6.1020495123459938e-04  -1.4966211963542710e-03 7.5997178818243522e-05 4.1119513954233255e-04  8.9186173003194216e-02 2.2024330049320097e-04 2.0893529809955220e-04  -1.7313416302216578e-03 6.2422527373142314e-05 2.6018831064219102e-04  8.9898444832595195e-02 3.7503343222702103e-04 -3.9990425955220685e-04  -1.6829458261964311e-03 3.0514233373574984e-05 1.2539607456372307e-04  9.0561566864359649e-02 8.9478213503830692e-04 -7.8545332532433104e-04  -1.6181907347495264e-03 5.5443810502881530e-05 1.5373034013033761e-04  9.1108918045152559e-02 1.7340388631433243e-04 -1.1015071788327804e-03  1.9386914761809965e-03 1.6428888114270200e-04 3.9635750947565433e-04  4.5101729311209378e-02 5.7080637077708989e-04 -6.2656006654643282e-04  2.1068879195887736e-03 1.1051519931110069e-04 3.1666075017871745e-04  4.3982544206368962e-02 3.0301795463385617e-04 -1.1248723854901913e-03  1.5459586323648637e-03 2.4835659846056299e-04 5.3773112092928162e-04  4.6074441327237217e-02 3.7265101148955995e-04 -4.7057995597014137e-04  9.4573398655141015e-04 2.6931451511160354e-04 6.0752098315231158e-04  4.5806524272075197e-02 3.0300555744621030e-04 -2.4429425292943623e-05  2.4715022209501389e-04 2.3983409193208959e-04 5.9012003352136382e-04  4.5169235909062445e-02 2.5093027849550206e-04 5.8490877875344593e-04  -4.4857725273244134e-04 1.7506882675386305e-04 5.2966330109561056e-04  4.4226790521870403e-02 1.7534997442846759e-04 9.1011732006008651e-04  -1.0561050684286864e-03 1.0028364047948211e-04 4.5282225151561934e-04  4.3422908602082380e-02 9.5670078802403564e-05 8.5715291009544304e-04  -1.5087295793130410e-03 4.6940652289169755e-05 3.6068693643734220e-04  4.3219450553444047e-02 5.4981452928379272e-05 5.2904472515055852e-04  -1.7267493306155277e-03 3.4237945471653745e-05 2.3136569916982398e-04  4.3765648736138613e-02 1.0350454791876990e-04 9.2219651990185507e-05  -1.7064493267152684e-03 3.4064824919316888e-05 1.0585505879445811e-04  4.3982086620723365e-02 4.5586695133153333e-04 -6.9641152476366148e-05  -1.6646406118464604e-03 4.7295455833813411e-05 1.2446925452784649e-04  4.3136293836004376e-02 7.8937218436299231e-04 -4.3706013874761688e-04  2.0547643826607002e-03 1.1672611650022424e-04 2.0114954374672106e-04  2.1956591534408295e-03 9.1534551486086217e-05 2.7292911226182309e-04  2.0773487351266507e-03 1.4079552327050498e-04 1.2702528787590723e-04  2.2713921762456298e-03 1.0798127453196587e-04 2.2352333664966148e-04  1.7747564997857340e-03 1.8278641735625684e-04 2.8904745432928097e-04  1.9118746500352390e-03 1.9523006219844793e-04 4.7291386357287216e-04  1.2387963014330442e-03 1.9948650436030807e-04 3.5203653083698387e-04  1.4622770642248573e-03 2.4134370977687495e-04 6.2299604328338611e-04  5.5145994397569527e-04 1.6946808340005510e-04 3.6926353367093984e-04  8.2097809503227880e-04 2.3627516880535024e-04 6.8631116865955702e-04  -1.7825862932869467e-04 1.1633741974491772e-04 3.4411992469377114e-04  9.7513615112839610e-05 1.9322924764153480e-04 6.6865300970065397e-04  -8.4608516520890873e-04 5.5563260634281792e-05 3.0124733388067098e-04  -5.9537524400127457e-04 1.2357592228705178e-04 6.0230540377644623e-04  -1.3834112992390367e-03 9.7378259183263673e-06 2.5788233483971154e-04  -1.1934571952645389e-03 5.7955810717024116e-05 5.1366608133399745e-04  -1.7010459674288866e-03 -1.8608137839056321e-06 2.0041028897791697e-04  -1.6233084081154032e-03 2.6615606097252203e-05 3.9520321653142067e-04  -1.7165000319026697e-03 1.2084348203860121e-05 1.1900999353271572e-04  -1.7674874272504491e-03 2.4677570450952413e-05 2.3440764813914742e-04  -1.6674130620096237e-03 3.5481276547773669e-05 9.4425321356216029e-05  -1.7470980162683275e-03 5.7450830335099621e-05 1.3761736227854493e-04  8.9950612028471738e-02 -4.7448974775355165e-04 -2.1479720229647934e-04  1.6405001044347402e-03 3.1058401765952340e-04 2.9556405804869720e-04  1.7347210131980924e-03 2.8147717847845232e-04 1.9552816293499760e-04  8.8504123263573112e-02 -4.4892186029171159e-04 -1.2178899078662715e-03  9.0835697805954518e-02 -6.4316941848135273e-04 -1.3550915782065917e-05  1.4421261913919136e-03 4.2162221065764532e-04 4.5301373081496084e-04  9.0656666082928314e-02 -4.1922601042704933e-04 2.5196889793781876e-04  1.0466991202090982e-03 5.1141714425487433e-04 6.1625347895951223e-04  9.0274949251732198e-02 -1.7662304895947500e-04 5.7873003744172210e-04  5.4226735784842681e-04 5.8230733174545663e-04 7.8053483751023558e-04  8.9695573359016886e-02 -3.7297885066617000e-05 8.6895899816101638e-04  -4.6779598240351789e-05 6.3928105269951078e-04 9.5466359732080655e-04  8.9002573344094629e-02 -3.3918540054487590e-05 1.0357951920235786e-03  -7.2429179130389172e-04 6.4759123831079339e-04 1.1354664157456488e-03  8.8378233569551934e-02 -7.1654415400118372e-05 9.2089693895959480e-04  -1.4428466793434472e-03 5.3196741042678593e-04 1.2674905579037740e-03  8.8229560616000124e-02 -7.6273172591044097e-05 1.1857243182127859e-04  -1.9800171527722794e-03 2.9007367595866861e-04 1.0544016114847770e-03  8.8990571020963014e-02 -1.7653252301400165e-05 -1.3509129311850244e-03  -2.1242028858730511e-03 1.2011348754625567e-04 3.6365315593474160e-04  8.9314795786551521e-02 -3.9874804626655841e-06 -2.0830436155361065e-04  -2.1681451617345054e-03 8.4449975765125130e-05 4.5588318636840733e-04  1.6663124452888634e-01 -4.6245712452884540e-04 -4.2932029435747960e-04  1.6671173158865310e-01 -2.1240488517654484e-03 -1.8268180196558249e-03  1.6731204288092039e-01 -5.4752215084748256e-04 -2.5282549521663683e-04  1.6734332883137545e-01 -3.5383633534904948e-04 1.1260989296950309e-04  1.6694524136470790e-01 -9.6751178117369821e-05 5.4269810079977097e-04  1.6634415206390660e-01 -4.7735284756193590e-05 7.0895577092001862e-04  1.6587065828554140e-01 -1.8960300175246557e-04 4.7375388594197797e-04  1.6589067997757681e-01 -3.1285151695638553e-04 -2.1966745178509674e-04  1.6668731145966320e-01 -1.6180385225990159e-04 -1.5184113251300970e-03  1.6794605252053030e-01 3.7646929210315231e-04 -3.0074259695983922e-03  1.6854791002138531e-01 -3.7429066097484343e-04 -2.0028360818840091e-03  1.9320260663691841e-01 -7.4843203407130258e-04 -8.2983454715805031e-04  1.9392984460831941e-01 -2.2299344072698730e-03 -2.7009559436287109e-03  1.9375141343143570e-01 -3.1748548713520040e-04 -5.8760890431139518e-04  1.9390682706463555e-01 1.0325110101977845e-05 -8.3146901965529724e-05  1.9361378170087171e-01 3.2095474381159107e-04 6.6117497921407034e-04  1.9297158867660563e-01 3.3338135717487355e-04 8.0429674361823657e-04  1.9255885201763528e-01 1.1094634285935933e-04 2.8240181802999096e-04  1.9288957949975399e-01 -3.7857384074810787e-05 -7.5020205644625213e-04  1.9414222816622909e-01 1.9487131773283307e-04 -2.2379326049039327e-03  1.9565123943983856e-01 9.4084334438317813e-04 -3.5829015370975686e-03  1.9601121236449981e-01 2.6587369467381516e-05 -3.0693723116420150e-03  1.6673824035131343e-01 -3.9930060281448453e-04 -1.2111367240416058e-03  1.6789238821430702e-01 -1.2656360834414934e-03 -3.3300547556117609e-03  1.6735278023687356e-01 -6.4342602822543377e-05 -9.0304524140427992e-04  1.6769545292455132e-01 2.5989173387015930e-04 -1.9832481962051867e-04  1.6746197968074744e-01 5.0967946928354233e-04 9.7792141547520424e-04  1.6665279507590408e-01 4.7832549888391881e-04 1.1384046972925384e-03  1.6611758861073520e-01 2.5497675129756135e-04 4.3463879207678632e-04  1.6646888703730986e-01 1.2375912597442515e-04 -7.0231186705343464e-04  1.6776760066073193e-01 3.7348391550039444e-04 -2.0140492132110009e-03  1.6908849692559708e-01 1.3993761661318738e-03 -2.9483255169666578e-03  1.6891570628405747e-01 6.1391612706160369e-04 -2.8291038644140615e-03  9.0069508001828974e-02 2.9261366882077703e-04 -8.8712545655565244e-04  9.0957198723974148e-02 -6.6109360211801324e-06 -3.1273829898637940e-03  9.0846347919923784e-02 2.1437080932311300e-04 -5.7648483001613605e-04  9.1134964014223260e-02 3.1346560437559175e-04 1.6335675052922649e-04  9.0729061289011523e-02 3.6856061437383071e-04 1.4567294571553654e-03  8.9560444502069320e-02 2.8381660140550005e-04 1.6972190016756135e-03  8.8617846649216056e-02 1.0140501122942739e-04 1.0916373985386334e-03  8.8532862434493625e-02 -1.0176334840383223e-05 1.6905080631735025e-04  8.9542822803873254e-02 7.9672704321742468e-05 -7.7622305381854883e-04  9.0326807447646845e-02 7.6803737127386555e-04 -1.3097470950310160e-03  8.8778803410937218e-02 1.3920869912006121e-03 -1.5456366764404017e-03  2.6198538493956186e-03 9.3051303731197352e-05 4.2634484108630693e-04  2.7130833970190277e-03 1.1423193567463964e-04 4.4004947799996413e-04  2.2228479536788278e-03 1.8370044447653088e-04 8.5663650633324272e-04  1.6622468764033399e-03 2.3643059144670895e-04 1.2079029578552425e-03  8.8379793103166341e-04 2.3215304601826206e-04 1.3987065408622489e-03  4.6396088058324305e-05 1.8460340929925723e-04 1.4035451252321191e-03  -6.9061446474312114e-04 8.8418649638370462e-05 1.2776597060588115e-03  -1.3068107054943130e-03 -1.0088027520615998e-05 1.0890364753197016e-03  -1.7837352989661384e-03 -5.9886523733455207e-05 8.4961968374671487e-04  -1.9759520640680677e-03 -4.7896070521134583e-05 5.3302043990866477e-04  -1.9371584722675857e-03 2.2589686976735047e-05 3.2989747626648860e-04  1.0594373520966545e-01 -7.5139587395368153e-04 -2.2808328397081555e-04  1.8345269791518253e-03 4.2516859005272122e-04 3.1787158086263437e-04  1.9421853042923729e-03 3.6952949454964072e-04 2.2375468421470277e-04  1.0467350678780513e-01 -8.6048928061619129e-04 -1.1010090755254995e-03  1.0686436949970937e-01 -8.5334359507492521e-04 1.7546792672315558e-04  1.6310014919737473e-03 5.8311338527681383e-04 5.0109191158961093e-04  1.0674036062942492e-01 -5.5254468901842443e-04 4.7331655914636912e-04  1.2361713464838239e-03 6.9370650981264250e-04 6.7994704949074069e-04  1.0644889547587427e-01 -1.5051315490960000e-04 7.3840769093347499e-04  7.4882311447988696e-04 7.7425179593508368e-04 8.5863732562991332e-04  1.0586532931782026e-01 5.3701066846084311e-05 8.9556589562336635e-04  1.8114373250945989e-04 8.6862896973303062e-04 1.0610213127788424e-03  1.0500093026648898e-01 -4.5052454706173940e-05 9.4112007909074008e-04  -5.5584922103517158e-04 9.7651603018205030e-04 1.3007550564098412e-03  1.0394893679038836e-01 -4.2752458065950982e-04 9.6502697293194889e-04  -1.5580296756428503e-03 9.8287945352762700e-04 1.5912643502769559e-03  1.0317385981341996e-01 -6.8795962602134482e-04 8.3256022298501694e-04  -2.4127303524465083e-03 6.8933330450319011e-04 1.9715738061217300e-03  1.0372241487840698e-01 -1.1085709449299127e-03 -5.0531451820091239e-04  -2.7415465950475968e-03 2.8368974572870313e-04 7.8660530780845722e-04  1.0349995099652412e-01 -1.5150586581331791e-03 2.6018984668324885e-03  -3.0139822561323338e-03 1.8847047169785009e-04 6.7712274135835247e-04  1.9331888104555314e-01 -9.0782023331485457e-04 -6.3480905950824389e-04  1.9401506596846566e-01 -3.0349069390133180e-03 -1.8649603623327475e-03  1.9394356438744301e-01 -9.1119807407743321e-04 -7.2550783977994436e-05  1.9415810302055400e-01 -5.6075228015687152e-04 3.8597983142892511e-04  1.9389728595215255e-01 4.6580647626680519e-05 7.8766987016354426e-04  1.9317047415249988e-01 1.2756447991475392e-04 7.5700286475130930e-04  1.9236322243901793e-01 -2.7137652130178124e-04 1.9325987671782173e-04  1.9181935147586465e-01 -8.2418086868297537e-04 -7.6292354890830476e-04  1.9207260988329652e-01 -1.0529239712245334e-03 -1.9630632364865310e-03  1.9277615380267521e-01 -4.2790411140922587e-04 -4.0514081471737943e-03  1.9198759342209321e-01 -1.8631234636842717e-03 -1.3751837944424379e-03  2.2357892531223586e-01 -1.3828491559785821e-03 -1.2497625537279649e-03  2.2544991088668148e-01 -3.3859497988497234e-03 -3.0001942145393727e-03  2.2396410680882581e-01 -6.9089744670841841e-04 -4.2556806738580449e-04  2.2459343536941120e-01 -1.1458287498698530e-05 3.8031494632050615e-04  2.2462874826079121e-01 8.8798734148944427e-04 1.3482410886517813e-03  2.2366530215106473e-01 8.6113725959671001e-04 1.2058940540696805e-03  2.2283213055536183e-01 2.1804905550293815e-04 6.7233300862276022e-05  2.2261069476286333e-01 -3.2085196371137110e-04 -1.5631919221413822e-03  2.2336635798641671e-01 -2.1544249696893659e-04 -3.4072725780595016e-03  2.2444199951329627e-01 8.5986249953193586e-04 -5.6895806421980097e-03  2.2329918003669180e-01 -5.3942681865801288e-04 -4.1539879080267975e-03  1.9338260628698192e-01 -9.8202584054940382e-04 -1.9252700161046393e-03  1.9620556855900972e-01 -2.3085832771744768e-03 -4.0120870245956590e-03  1.9384983037671655e-01 -3.1716116135383225e-04 -1.0985196100421711e-03  1.9491153119426818e-01 5.0525574860156878e-04 5.5782941368560251e-04  1.9535206814802678e-01 1.4022965815395818e-03 2.6121007786078176e-03  1.9392155089465715e-01 1.2019008552323811e-03 2.18