<?xml version="1.0"?>
<VTKFile type="UnstructuredGrid"  version="0.1"  >
<UnstructuredGrid>
<Piece  NumberOfPoints="1331" NumberOfCells="6000">
<Points>
<DataArray  type="Float64"  NumberOfComponents="3"  format="ascii">0 0 0  0.1 0 0  0.2 0 0  0.3 0 0  0.4 0 0  0.5 0 0  0.6 0 0  0.7 0 0  0.8 0 0  0.9 0 0  1 0 0  0 0.1 0  0.1 0.1 0  0.2 0.1 0  0.3 0.1 0  0.4 0.1 0  0.5 0.1 0  0.6 0.1 0  0.7 0.1 0  0.8 0.1 0  0.9 0.1 0  1 0.1 0  0 0.2 0  0.1 0.2 0  0.2 0.2 0  0.3 0.2 0  0.4 0.2 0  0.5 0.2 0  0.6 0.2 0  0.7 0.2 0  0.8 0.2 0  0.9 0.2 0  1 0.2 0  0 0.3 0  0.1 0.3 0  0.2 0.3 0  0.3 0.3 0  0.4 0.3 0  0.5 0.3 0  0.6 0.3 0  0.7 0.3 0  0.8 0.3 0  0.9 0.3 0  1 0.3 0  0 0.4 0  0.1 0.4 0  0.2 0.4 0  0.3 0.4 0  0.4 0.4 0  0.5 0.4 0  0.6 0.4 0  0.7 0.4 0  0.8 0.4 0  0.9 0.4 0  1 0.4 0  0 0.5 0  0.1 0.5 0  0.2 0.5 0  0.3 0.5 0  0.4 0.5 0  0.5 0.5 0  0.6 0.5 0  0.7 0.5 0  0.8 0.5 0  0.9 0.5 0  1 0.5 0  0 0.6 0  0.1 0.6 0  0.2 0.6 0  0.3 0.6 0  0.4 0.6 0  0.5 0.6 0  0.6 0.6 0  0.7 0.6 0  0.8 0.6 0  0.9 0.6 0  1 0.6 0  0 0.7 0  0.1 0.7 0  0.2 0.7 0  0.3 0.7 0  0.4 0.7 0  0.5 0.7 0  0.6 0.7 0  0.7 0.7 0  0.8 0.7 0  0.9 0.7 0  1 0.7 0  0 0.8 0  0.1 0.8 0  0.2 0.8 0  0.3 0.8 0  0.4 0.8 0  0.5 0.8 0  0.6 0.8 0  0.7 0.8 0  0.8 0.8 0  0.9 0.8 0  1 0.8 0  0 0.9 0  0.1 0.9 0  0.2 0.9 0  0.3 0.9 0  0.4 0.9 0  0.5 0.9 0  0.6 0.9 0  0.7 0.9 0  0.8 0.9 0  0.9 0.9 0  1 0.9 0  0 1 0  0.1 1 0  0.2 1 0  0.3 1 0  0.4 1 0  0.5 1 0  0.6 1 0  0.7 1 0  0.8 1 0  0.9 1 0  1 1 0  0 0 0.1  0.1 0 0.1  0.2 0 0.1  0.3 0 0.1  0.4 0 0.1  0.5 0 0.1  0.6 0 0.1  0.7 0 0.1  0.8 0 0.1  0.9 0 0.1  1 0 0.1  0 0.1 0.1  0.1 0.1 0.1  0.2 0.1 0.1  0.3 0.1 0.1  0.4 0.1 0.1  0.5 0.1 0.1  0.6 0.1 0.1  0.7 0.1 0.1  0.8 0.1 0.1  0.9 0.1 0.1  1 0.1 0.1  0 0.2 0.1  0.1 0.2 0.1  0.2 0.2 0.1  0.3 0.2 0.1  0.4 0.2 0.1  0.5 0.2 0.1  0.6 0.2 0.1  0.7 0.2 0.1  0.8 0.2 0.1  0.9 0.2 0.1  1 0.2 0.1  0 0.3 0.1  0.1 0.3 0.1  0.2 0.3 0.1  0.3 0.3 0.1  0.4 0.3 0.1  0.5 0.3 0.1  0.6 0.3 0.1  0.7 0.3 0.1  0.8 0.3 0.1  0.9 0.3 0.1  1 0.3 0.1  0 0.4 0.1  0.1 0.4 0.1  0.2 0.4 0.1  0.3 0.4 0.1  0.4 0.4 0.1  0.5 0.4 0.1  0.6 0.4 0.1  0.7 0.4 0.1  0.8 0.4 0.1  0.9 0.4 0.1  1 0.4 0.1  0 0.5 0.1  0.1 0.5 0.1  0.2 0.5 0.1  0.3 0.5 0.1  0.4 0.5 0.1  0.5 0.5 0.1  0.6 0.5 0.1  0.7 0.5 0.1  0.8 0.5 0.1  0.9 0.5 0.1  1 0.5 0.1  0 0.6 0.1  0.1 0.6 0.1  0.2 0.6 0.1  0.3 0.6 0.1  0.4 0.6 0.1  0.5 0.6 0.1  0.6 0.6 0.1  0.7 0.6 0.1  0.8 0.6 0.1  0.9 0.6 0.1  1 0.6 0.1  0 0.7 0.1  0.1 0.7 0.1  0.2 0.7 0.1  0.3 0.7 0.1  0.4 0.7 0.1  0.5 0.7 0.1  0.6 0.7 0.1  0.7 0.7 0.1  0.8 0.7 0.1  0.9 0.7 0.1  1 0.7 0.1  0 0.8 0.1  0.1 0.8 0.1  0.2 0.8 0.1  0.3 0.8 0.1  0.4 0.8 0.1  0.5 0.8 0.1  0.6 0.8 0.1  0.7 0.8 0.1  0.8 0.8 0.1  0.9 0.8 0.1  1 0.8 0.1  0 0.9 0.1  0.1 0.9 0.1  0.2 0.9 0.1  0.3 0.9 0.1  0.4 0.9 0.1  0.5 0.9 0.1  0.6 0.9 0.1  0.7 0.9 0.1  0.8 0.9 0.1  0.9 0.9 0.1  1 0.9 0.1  0 1 0.1  0.1 1 0.1  0.2 1 0.1  0.3 1 0.1  0.4 1 0.1  0.5 1 0.1  0.6 1 0.1  0.7 1 0.1  0.8 1 0.1  0.9 1 0.1  1 1 0.1  0 0 0.2  0.1 0 0.2  0.2 0 0.2  0.3 0 0.2  0.4 0 0.2  0.5 0 0.2  0.6 0 0.2  0.7 0 0.2  0.8 0 0.2  0.9 0 0.2  1 0 0.2  0 0.1 0.2  0.1 0.1 0.2  0.2 0.1 0.2  0.3 0.1 0.2  0.4 0.1 0.2  0.5 0.1 0.2  0.6 0.1 0.2  0.7 0.1 0.2  0.8 0.1 0.2  0.9 0.1 0.2  1 0.1 0.2  0 0.2 0.2  0.1 0.2 0.2  0.2 0.2 0.2  0.3 0.2 0.2  0.4 0.2 0.2  0.5 0.2 0.2  0.6 0.2 0.2  0.7 0.2 0.2  0.8 0.2 0.2  0.9 0.2 0.2  1 0.2 0.2  0 0.3 0.2  0.1 0.3 0.2  0.2 0.3 0.2  0.3 0.3 0.2  0.4 0.3 0.2  0.5 0.3 0.2  0.6 0.3 0.2  0.7 0.3 0.2  0.8 0.3 0.2  0.9 0.3 0.2  1 0.3 0.2  0 0.4 0.2  0.1 0.4 0.2  0.2 0.4 0.2  0.3 0.4 0.2  0.4 0.4 0.2  0.5 0.4 0.2  0.6 0.4 0.2  0.7 0.4 0.2  0.8 0.4 0.2  0.9 0.4 0.2  1 0.4 0.2  0 0.5 0.2  0.1 0.5 0.2  0.2 0.5 0.2  0.3 0.5 0.2  0.4 0.5 0.2  0.5 0.5 0.2  0.6 0.5 0.2  0.7 0.5 0.2  0.8 0.5 0.2  0.9 0.5 0.2  1 0.5 0.2  0 0.6 0.2  0.1 0.6 0.2  0.2 0.6 0.2  0.3 0.6 0.2  0.4 0.6 0.2  0.5 0.6 0.2  0.6 0.6 0.2  0.7 0.6 0.2  0.8 0.6 0.2  0.9 0.6 0.2  1 0.6 0.2  0 0.7 0.2  0.1 0.7 0.2  0.2 0.7 0.2  0.3 0.7 0.2  0.4 0.7 0.2  0.5 0.7 0.2  0.6 0.7 0.2  0.7 0.7 0.2  0.8 0.7 0.2  0.9 0.7 0.2  1 0.7 0.2  0 0.8 0.2  0.1 0.8 0.2  0.2 0.8 0.2  0.3 0.8 0.2  0.4 0.8 0.2  0.5 0.8 0.2  0.6 0.8 0.2  0.7 0.8 0.2  0.8 0.8 0.2  0.9 0.8 0.2  1 0.8 0.2  0 0.9 0.2  0.1 0.9 0.2  0.2 0.9 0.2  0.3 0.9 0.2  0.4 0.9 0.2  0.5 0.9 0.2  0.6 0.9 0.2  0.7 0.9 0.2  0.8 0.9 0.2  0.9 0.9 0.2  1 0.9 0.2  0 1 0.2  0.1 1 0.2  0.2 1 0.2  0.3 1 0.2  0.4 1 0.2  0.5 1 0.2  0.6 1 0.2  0.7 1 0.2  0.8 1 0.2  0.9 1 0.2  1 1 0.2  0 0 0.3  0.1 0 0.3  0.2 0 0.3  0.3 0 0.3  0.4 0 0.3  0.5 0 0.3  0.6 0 0.3  0.7 0 0.3  0.8 0 0.3  0.9 0 0.3  1 0 0.3  0 0.1 0.3  0.1 0.1 0.3  0.2 0.1 0.3  0.3 0.1 0.3  0.4 0.1 0.3  0.5 0.1 0.3  0.6 0.1 0.3  0.7 0.1 0.3  0.8 0.1 0.3  0.9 0.1 0.3  1 0.1 0.3  0 0.2 0.3  0.1 0.2 0.3  0.2 0.2 0.3  0.3 0.2 0.3  0.4 0.2 0.3  0.5 0.2 0.3  0.6 0.2 0.3  0.7 0.2 0.3  0.8 0.2 0.3  0.9 0.2 0.3  1 0.2 0.3  0 0.3 0.3  0.1 0.3 0.3  0.2 0.3 0.3  0.3 0.3 0.3  0.4 0.3 0.3  0.5 0.3 0.3  0.6 0.3 0.3  0.7 0.3 0.3  0.8 0.3 0.3  0.9 0.3 0.3  1 0.3 0.3  0 0.4 0.3  0.1 0.4 0.3  0.2 0.4 0.3  0.3 0.4 0.3  0.4 0.4 0.3  0.5 0.4 0.3  0.6 0.4 0.3  0.7 0.4 0.3  0.8 0.4 0.3  0.9 0.4 0.3  1 0.4 0.3  0 0.5 0.3  0.1 0.5 0.3  0.2 0.5 0.3  0.3 0.5 0.3  0.4 0.5 0.3  0.5 0.5 0.3  0.6 0.5 0.3  0.7 0.5 0.3  0.8 0.5 0.3  0.9 0.5 0.3  1 0.5 0.3  0 0.6 0.3  0.1 0.6 0.3  0.2 0.6 0.3  0.3 0.6 0.3  0.4 0.6 0.3  0.5 0.6 0.3  0.6 0.6 0.3  0.7 0.6 0.3  0.8 0.6 0.3  0.9 0.6 0.3  1 0.6 0.3  0 0.7 0.3  0.1 0.7 0.3  0.2 0.7 0.3  0.3 0.7 0.3  0.4 0.7 0.3  0.5 0.7 0.3  0.6 0.7 0.3  0.7 0.7 0.3  0.8 0.7 0.3  0.9 0.7 0.3  1 0.7 0.3  0 0.8 0.3  0.1 0.8 0.3  0.2 0.8 0.3  0.3 0.8 0.3  0.4 0.8 0.3  0.5 0.8 0.3  0.6 0.8 0.3  0.7 0.8 0.3  0.8 0.8 0.3  0.9 0.8 0.3  1 0.8 0.3  0 0.9 0.3  0.1 0.9 0.3  0.2 0.9 0.3  0.3 0.9 0.3  0.4 0.9 0.3  0.5 0.9 0.3  0.6 0.9 0.3  0.7 0.9 0.3  0.8 0.9 0.3  0.9 0.9 0.3  1 0.9 0.3  0 1 0.3  0.1 1 0.3  0.2 1 0.3  0.3 1 0.3  0.4 1 0.3  0.5 1 0.3  0.6 1 0.3  0.7 1 0.3  0.8 1 0.3  0.9 1 0.3  1 1 0.3  0 0 0.4  0.1 0 0.4  0.2 0 0.4  0.3 0 0.4  0.4 0 0.4  0.5 0 0.4  0.6 0 0.4  0.7 0 0.4  0.8 0 0.4  0.9 0 0.4  1 0 0.4  0 0.1 0.4  0.1 0.1 0.4  0.2 0.1 0.4  0.3 0.1 0.4  0.4 0.1 0.4  0.5 0.1 0.4  0.6 0.1 0.4  0.7 0.1 0.4  0.8 0.1 0.4  0.9 0.1 0.4  1 0.1 0.4  0 0.2 0.4  0.1 0.2 0.4  0.2 0.2 0.4  0.3 0.2 0.4  0.4 0.2 0.4  0.5 0.2 0.4  0.6 0.2 0.4  0.7 0.2 0.4  0.8 0.2 0.4  0.9 0.2 0.4  1 0.2 0.4  0 0.3 0.4  0.1 0.3 0.4  0.2 0.3 0.4  0.3 0.3 0.4  0.4 0.3 0.4  0.5 0.3 0.4  0.6 0.3 0.4  0.7 0.3 0.4  0.8 0.3 0.4  0.9 0.3 0.4  1 0.3 0.4  0 0.4 0.4  0.1 0.4 0.4  0.2 0.4 0.4  0.3 0.4 0.4  0.4 0.4 0.4  0.5 0.4 0.4  0.6 0.4 0.4  0.7 0.4 0.4  0.8 0.4 0.4  0.9 0.4 0.4  1 0.4 0.4  0 0.5 0.4  0.1 0.5 0.4  0.2 0.5 0.4  0.3 0.5 0.4  0.4 0.5 0.4  0.5 0.5 0.4  0.6 0.5 0.4  0.7 0.5 0.4  0.8 0.5 0.4  0.9 0.5 0.4  1 0.5 0.4  0 0.6 0.4  0.1 0.6 0.4  0.2 0.6 0.4  0.3 0.6 0.4  0.4 0.6 0.4  0.5 0.6 0.4  0.6 0.6 0.4  0.7 0.6 0.4  0.8 0.6 0.4  0.9 0.6 0.4  1 0.6 0.4  0 0.7 0.4  0.1 0.7 0.4  0.2 0.7 0.4  0.3 0.7 0.4  0.4 0.7 0.4  0.5 0.7 0.4  0.6 0.7 0.4  0.7 0.7 0.4  0.8 0.7 0.4  0.9 0.7 0.4  1 0.7 0.4  0 0.8 0.4  0.1 0.8 0.4  0.2 0.8 0.4  0.3 0.8 0.4  0.4 0.8 0.4  0.5 0.8 0.4  0.6 0.8 0.4  0.7 0.8 0.4  0.8 0.8 0.4  0.9 0.8 0.4  1 0.8 0.4  0 0.9 0.4  0.1 0.9 0.4  0.2 0.9 0.4  0.3 0.9 0.4  0.4 0.9 0.4  0.5 0.9 0.4  0.6 0.9 0.4  0.7 0.9 0.4  0.8 0.9 0.4  0.9 0.9 0.4  1 0.9 0.4  0 1 0.4  0.1 1 0.4  0.2 1 0.4  0.3 1 0.4  0.4 1 0.4  0.5 1 0.4  0.6 1 0.4  0.7 1 0.4  0.8 1 0.4  0.9 1 0.4  1 1 0.4  0 0 0.5  0.1 0 0.5  0.2 0 0.5  0.3 0 0.5  0.4 0 0.5  0.5 0 0.5  0.6 0 0.5  0.7 0 0.5  0.8 0 0.5  0.9 0 0.5  1 0 0.5  0 0.1 0.5  0.1 0.1 0.5  0.2 0.1 0.5  0.3 0.1 0.5  0.4 0.1 0.5  0.5 0.1 0.5  0.6 0.1 0.5  0.7 0.1 0.5  0.8 0.1 0.5  0.9 0.1 0.5  1 0.1 0.5  0 0.2 0.5  0.1 0.2 0.5  0.2 0.2 0.5  0.3 0.2 0.5  0.4 0.2 0.5  0.5 0.2 0.5  0.6 0.2 0.5  0.7 0.2 0.5  0.8 0.2 0.5  0.9 0.2 0.5  1 0.2 0.5  0 0.3 0.5  0.1 0.3 0.5  0.2 0.3 0.5  0.3 0.3 0.5  0.4 0.3 0.5  0.5 0.3 0.5  0.6 0.3 0.5  0.7 0.3 0.5  0.8 0.3 0.5  0.9 0.3 0.5  1 0.3 0.5  0 0.4 0.5  0.1 0.4 0.5  0.2 0.4 0.5  0.3 0.4 0.5  0.4 0.4 0.5  0.5 0.4 0.5  0.6 0.4 0.5  0.7 0.4 0.5  0.8 0.4 0.5  0.9 0.4 0.5  1 0.4 0.5  0 0.5 0.5  0.1 0.5 0.5  0.2 0.5 0.5  0.3 0.5 0.5  0.4 0.5 0.5  0.5 0.5 0.5  0.6 0.5 0.5  0.7 0.5 0.5  0.8 0.5 0.5  0.9 0.5 0.5  1 0.5 0.5  0 0.6 0.5  0.1 0.6 0.5  0.2 0.6 0.5  0.3 0.6 0.5  0.4 0.6 0.5  0.5 0.6 0.5  0.6 0.6 0.5  0.7 0.6 0.5  0.8 0.6 0.5  0.9 0.6 0.5  1 0.6 0.5  0 0.7 0.5  0.1 0.7 0.5  0.2 0.7 0.5  0.3 0.7 0.5  0.4 0.7 0.5  0.5 0.7 0.5  0.6 0.7 0.5  0.7 0.7 0.5  0.8 0.7 0.5  0.9 0.7 0.5  1 0.7 0.5  0 0.8 0.5  0.1 0.8 0.5  0.2 0.8 0.5  0.3 0.8 0.5  0.4 0.8 0.5  0.5 0.8 0.5  0.6 0.8 0.5  0.7 0.8 0.5  0.8 0.8 0.5  0.9 0.8 0.5  1 0.8 0.5  0 0.9 0.5  0.1 0.9 0.5  0.2 0.9 0.5  0.3 0.9 0.5  0.4 0.9 0.5  0.5 0.9 0.5  0.6 0.9 0.5  0.7 0.9 0.5  0.8 0.9 0.5  0.9 0.9 0.5  1 0.9 0.5  0 1 0.5  0.1 1 0.5  0.2 1 0.5  0.3 1 0.5  0.4 1 0.5  0.5 1 0.5  0.6 1 0.5  0.7 1 0.5  0.8 1 0.5  0.9 1 0.5  1 1 0.5  0 0 0.6  0.1 0 0.6  0.2 0 0.6  0.3 0 0.6  0.4 0 0.6  0.5 0 0.6  0.6 0 0.6  0.7 0 0.6  0.8 0 0.6  0.9 0 0.6  1 0 0.6  0 0.1 0.6  0.1 0.1 0.6  0.2 0.1 0.6  0.3 0.1 0.6  0.4 0.1 0.6  0.5 0.1 0.6  0.6 0.1 0.6  0.7 0.1 0.6  0.8 0.1 0.6  0.9 0.1 0.6  1 0.1 0.6  0 0.2 0.6  0.1 0.2 0.6  0.2 0.2 0.6  0.3 0.2 0.6  0.4 0.2 0.6  0.5 0.2 0.6  0.6 0.2 0.6  0.7 0.2 0.6  0.8 0.2 0.6  0.9 0.2 0.6  1 0.2 0.6  0 0.3 0.6  0.1 0.3 0.6  0.2 0.3 0.6  0.3 0.3 0.6  0.4 0.3 0.6  0.5 0.3 0.6  0.6 0.3 0.6  0.7 0.3 0.6  0.8 0.3 0.6  0.9 0.3 0.6  1 0.3 0.6  0 0.4 0.6  0.1 0.4 0.6  0.2 0.4 0.6  0.3 0.4 0.6  0.4 0.4 0.6  0.5 0.4 0.6  0.6 0.4 0.6  0.7 0.4 0.6  0.8 0.4 0.6  0.9 0.4 0.6  1 0.4 0.6  0 0.5 0.6  0.1 0.5 0.6  0.2 0.5 0.6  0.3 0.5 0.6  0.4 0.5 0.6  0.5 0.5 0.6  0.6 0.5 0.6  0.7 0.5 0.6  0.8 0.5 0.6  0.9 0.5 0.6  1 0.5 0.6  0 0.6 0.6  0.1 0.6 0.6  0.2 0.6 0.6  0.3 0.6 0.6  0.4 0.6 0.6  0.5 0.6 0.6  0.6 0.6 0.6  0.7 0.6 0.6  0.8 0.6 0.6  0.9 0.6 0.6  1 0.6 0.6  0 0.7 0.6  0.1 0.7 0.6  0.2 0.7 0.6  0.3 0.7 0.6  0.4 0.7 0.6  0.5 0.7 0.6  0.6 0.7 0.6  0.7 0.7 0.6  0.8 0.7 0.6  0.9 0.7 0.6  1 0.7 0.6  0 0.8 0.6  0.1 0.8 0.6
[...]
<PointData  Scalars="f_53"> 
<DataArray  type="Float64"  Name="f_53"  format="ascii">2.6646584752243996e-01  1.6185683063193501e-01  1.0467187647680232e-01  7.1362647707502419e-02  4.8942113820095424e-02  3.3919638675296120e-02  2.3649454622856295e-02  1.6351230122380440e-02  1.2455176960871946e-02  7.6960696264679312e-03  3.6498487101235548e-03  -1.2816545027265047e-01  -4.4328249343561880e-02  -1.7115273824598352e-02  -1.7135593497942039e-03  3.3340746408090367e-03  4.5644473111446223e-03  4.3152695397233242e-03  3.6899458317345146e-03  4.1525198385327852e-03  1.3091313386514325e-03  -3.4540430163938193e-04  -2.6998314016128611e-01  -9.6553515721332278e-02  -6.0340170151213623e-02  -3.3142189203259606e-02  -1.8482794699922658e-02  -1.0597806670023014e-02  -6.1870096084455832e-03  -3.5393136819208129e-03  -7.0342915340997970e-04  -3.4745632655009758e-03  -1.4981952587828640e-03  -2.9126236252943632e-01  -1.0195668229901501e-01  -6.9997189992887579e-02  -4.1135060517966095e-02  -2.4786507781527373e-02  -1.5672260013144750e-02  -1.0269746267077237e-02  -6.6831745682192582e-03  -3.1460816737098464e-03  -6.5101853747899638e-03  -1.6229624521473800e-03  -2.9884153915292366e-01  -1.0946305380172000e-01  -8.1346670981715344e-02  -5.0657864238239855e-02  -3.2456153865466138e-02  -2.1710350389213966e-02  -1.4952201665486378e-02  -1.0196454705595969e-02  -5.7444678061639347e-03  -8.7517430910195992e-03  -1.8733267634922842e-03  -3.2874587246201525e-01  -1.2860865530490131e-01  -9.7764495569819101e-02  -6.3102821272852203e-02  -4.1649915862959692e-02  -2.8310157224210385e-02  -1.9609395217336748e-02  -1.3359638511560237e-02  -8.0781265522327037e-03  -9.9649829829610674e-03  -2.0381848061269557e-03  -3.5953953623445922e-01  -1.2979804773112932e-01  -9.3241206714745312e-02  -5.8906882103795855e-02  -3.8021920618917397e-02  -2.5254001826982436e-02  -1.7061580984742489e-02  -1.1302272539499586e-02  -6.8542540650247032e-03  -8.3090449789346363e-03  -1.3795499313795725e-03  -3.4178384206629220e-01  -1.1065669866455594e-01  -6.8771437661344650e-02  -4.1413328337125757e-02  -2.6070758872809720e-02  -1.7097137919068618e-02  -1.1426382713887798e-02  -7.5731043753589182e-03  -4.8158111192643238e-03  -5.5834947548295917e-03  -4.9410270803179211e-04  -5.9814239528634676e-02  6.2519977827800660e-03  -2.8753255936657287e-03  -2.8788667887646724e-03  -2.0156433516829598e-03  -1.4423740434110269e-03  -9.9359692371604768e-04  -6.6988863170537214e-04  -4.4851616536487808e-04  -8.0107929077440380e-04  9.5538462201325046e-04  1.0101507079630475e-02  6.8126478718493286e-03  1.3121156428052326e-03  1.3059030538965588e-03  1.1715512817532874e-03  8.5897746610959919e-04  6.1513543187321303e-04  4.3996155824761247e-04  2.6738503438328553e-04  2.6062146335810232e-04  1.7835543478473604e-04  6.4575540427206871e-03  2.2338529328811418e-03  -5.5777660813484647e-04  -5.8765851120680694e-04  -4.2075924605832057e-04  -3.7860993843044589e-04  -2.8443923068568241e-04  -2.0210727597013911e-04  -1.7340948171626829e-04  -1.5065125964401280e-04  -1.1203455862322281e-04  -1.2817980947272389e-01  -4.4341096656209236e-02  -1.7133538260657406e-02  -1.7408043723232298e-03  3.3041148913850933e-03  4.5357570289282700e-03  4.2822168374026057e-03  3.6590592214888907e-03  4.1229955887788277e-03  1.2879139403463762e-03  -3.5261295809371047e-04  -8.2824223995716173e-01  -4.3827498941911314e-01  -2.8480463482506696e-01  -1.9194868820937538e-01  -1.3141309926632661e-01  -9.0700710876725210e-02  -6.3238161331752488e-02  -4.4325617311823891e-02  -3.0818158478915777e-02  -2.5068450360617629e-02  -1.1498125577457826e-02  -2.2204067149825732e-01  -1.3068959798557761e-01  -1.3686632983403679e-01  -1.2588826876749493e-01  -1.0191151130420904e-01  -7.7978808064720531e-02  -5.8155622336826668e-02  -4.3113884955198682e-02  -3.1730331288982075e-02  -2.8859989112962111e-02  -7.4736820633311664e-03  -3.3819244856701614e-01  -1.5373129587496645e-01  -1.3126870851995304e-01  -1.2134512624606389e-01  -9.9986735040131849e-02  -7.7987666093704361e-02  -5.9152261836110685e-02  -4.4455290851907601e-02  -3.3449666073607380e-02  -3.1607370449680906e-02  -2.6715808583727884e-03  -3.9355569714315725e-01  -1.7055263526061243e-01  -1.4632589348619759e-01  -1.3436615980006944e-01  -1.0927671782398936e-01  -8.4213686017678258e-02  -6.3134111070494339e-02  -4.6858485864351193e-02  -3.5010348256812318e-02  -3.3293698261405824e-02  1.8959048737826807e-04  -3.8671944754041881e-01  -1.5013223824610444e-01  -1.2532654019557735e-01  -1.1489407220334692e-01  -9.2774277430948557e-02  -7.0984890540993273e-02  -5.2824129139760992e-02  -3.8870432480860487e-02  -2.9222689137701194e-02  -2.8749636733700481e-02  3.2763922251575883e-03  -3.0792464150426141e-01  -7.9068842137275122e-02  -5.5811790639913990e-02  -5.6337511457358887e-02  -4.7194170184273597e-02  -3.6980414346721849e-02  -2.7980546302595805e-02  -2.0913234489211546e-02  -1.6635496799530466e-02  -1.8495666287643115e-02  6.8001110278622916e-03  -1.2746919873913271e-01  -1.0344372899018251e-02  -6.5354703860443213e-03  -1.9238184534986262e-02  -2.0049031366300925e-02  -1.7670960142032194e-02  -1.4395285403735653e-02  -1.1411262727577651e-02  -9.8608397195820881e-03  -1.1415135234612475e-02  6.9134236946236972e-03  4.1884075265466758e-01  1.8422186311500036e-01  8.9023592987824279e-02  4.2930849710800779e-02  2.3703021824643716e-02  1.3749283248317723e-02  8.3203884656456849e-03  5.1107452107773052e-03  2.9177526486663620e-03  1.1856239612208542e-03  6.9437531110017560e-03  -3.3723119186682228e-02  -6.9312481102445270e-02  -3.5846136733293933e-02  -2.0631471713545360e-02  -1.2029350353964980e-02  -7.6277694807138693e-03  -4.9793943037220725e-03  -3.3283008064729836e-03  -2.2455631910894549e-03  -1.0957185133270656e-03  -1.3911304415075154e-03  1.0049722378352242e-02  2.6280877445297446e-03  1.2578839560445601e-02  7.2095976125489377e-03  4.1939997189324322e-03  2.4864027490842143e-03  1.6227569887377472e-03  1.0858692775620325e-03  7.0325899855629972e-04  5.8132615308303286e-04  4.6770373688708117e-04  -2.7000231689618331e-01  -9.6555629345857444e-02  -6.0343792152755919e-02  -3.3166904300534178e-02  -1.8521018096786478e-02  -1.0667310688158731e-02  -6.3113514218594612e-03  -3.6910322554716498e-03  -8.8137119665101203e-04  -3.5985372434359682e-03  -1.5400517527863922e-03  -2.2200633379021242e-01  -1.3065925332800846e-01  -1.3681603933100556e-01  -1.2581407860372545e-01  -1.0180192786742331e-01  -7.7859840630753449e-02  -5.8028253222417954e-02  -4.2968721202886008e-02  -3.1602164095874956e-02  -2.8739026141285023e-02  -7.4164080884944273e-03  8.0000000000000000e+00  4.8125270299760956e+00  3.0859024025084718e+00  2.0292424930507158e+00  1.3585317797530987e+00  9.2357903095749205e-01  6.3624471058558862e-01  4.4270361289440924e-01  3.1081413767177946e-01  2.1864528251658094e-01  1.7978653572294265e-01  8.0000000000000000e+00  5.6735073088000032e+00  4.0049378166381588e+00  2.8070249659515332e+00  1.9634941402371096e+00  1.3766909904345674e+00  9.6973446973394473e-01  6.8657779152483855e-01  4.8979064747462325e-01  3.5328543353639646e-01  3.0630732261587273e-01  8.0000000000000000e+00  6.0334797346454465e+00  4.4929092728649298e+00  3.2806400383566019e+00  2.3659796472804140e+00  1.6971884883981829e+00  1.2163488711086485e+00  8.7300713831230048e-01  6.2963665914333089e-01  4.5831536853169047e-01  3.9848186890516213e-01  8.0000000000000000e+00  6.1288402803527466e+00  4.6319412270274114e+00  3.4224397926068009e+00  2.4910530560961597e+00  1.7997061935506526e+00  1.2970497705940924e+00  9.3514476986913719e-01  6.7657224315822373e-01  4.9465092366194541e-01  4.2979446716226338e-01  8.0000000000000000e+00  6.0059345368467305e+00  4.4535650053396401e+00  3.2408155606984073e+00  2.3310981664735353e+00  1.6688041949849801e+00  1.1941316811728744e+00  8.5606106252639325e-01  6.1630802487487768e-01  4.5125654040146351e-01  3.9233193828262608e-01  8.0000000000000000e+00  5.5359143046108139e+00  3.8570086196212672e+00  2.6872894887016998e+00  1.8747878631515928e+00  1.3127925896701795e+00  9.2394767111524922e-01  6.5394397637719359e-01  4.6622588122211112e-01  3.4156866421524451e-01  2.9735361856383613e-01  8.0000000000000000e+00  4.4950354545622373e+00  2.8222330216664533e+00  1.8508355635784282e+00  1.2438024332324222e+00  8.4989911818184605e-01  5.8806707262809954e-01  4.1102618427739274e-01  2.9019376940704916e-01  2.1108141866371768e-01  1.7899335126474192e-01  7.1504212431406056e-01  8.2703973726780289e-02  -2.8534123664079522e-02  -3.2634568508249112e-02  -2.5065838285441809e-02  -1.8432993079310046e-02  -1.3416163996111535e-02  -9.7074456989696932e-03  -6.9814477366161058e-03  -4.9865150905479558e-03  -1.3849323473886850e-02  7.3840141113478225e-02  -1.2099614000608312e-01  -4.1180772173626208e-02  -8.4961247712736863e-03  -3.3487784620154452e-03  -1.7635165899209891e-03  -9.7766417367201844e-04  -5.5291694093579746e-04  -4.0157594121322313e-04  1.1365768181389588e-04  -3.4566307055552346e-04  -2.9124370852560516e-01  -1.0189771840954817e-01  -6.9917996382486206e-02  -4.1075757572330271e-02  -2.4760084393984354e-02  -1.5741370156712248e-02  -1.0490798150271461e-02  -7.0141784462497301e-03  -3.5981994865140823e-03  -6.7894427965023586e-03  -1.7083953091979224e-03  -3.3812056795086975e-01  -1.5369100774620117e-01  -1.3119502114646192e-01  -1.2119319240744017e-01  -9.9725155321111633e-02  -7.7629710382157643e-02  -5.8661174975709766e-02  -4.3784244923193411e-02  -3.2753099655941108e-02  -3.0878125397499633e-02  -2.3527997966341792e-03  8.0000000000000000e+00  5.6733046587259874e+00  4.0045622582718927e+00  2.8063965671368973e+00  1.9626167144879167e+00  1.3756007142429632e+00  9.6850951294016341e-01  6.8532883817432533e-01  4.8858496624754921e-01  3.5226797027149326e-01  3.0550960467765170e-01  8.0000000000000000e+00  6.5343997052340290e+00  4.9740336750903591e+00  3.6654744823647620e+00  2.6540142353394134e+00  1.9056687468487183e+00  1.3645892148989154e+00  9.7758230971417570e-01  7.0372704948859244e-01  5.0950496516512134e-01  4.3280710715608539e-01  8.0000000000000000e+00  6.9543401313229047e+00  5.5972183824148072e+00  4.3083632163007151e+00  3.2228034428042256e+00  2.3702092993368455e+00  1.7274301221162915e+00  1.2539925088560910e+00  9.1149859507779751e-01  6.6254727056157492e-01  5.5999060123103428e-01  8.0000000000000000e+00  7.0593863709417422e+00  5.7741644027256482e+00  4.5051787274517139e+00  3.4059235999688546e+00  2.5252524107631014e+00  1.8518027441669473e+00  1.3507025507724202e+00  9.8481051777542639e-01  7.1865137963176851e-01  6.0794095179789132e-01  8.0000000000000000e+00  6.9211669746061473e+00  5.5458797662160215e+00  4.2532339483381385e+00  3.1725194450272736e+00  2.3283837673349157e+00  1.6944477070281720e+00  1.2288568263684305e+00  8.9174860245537224e-01  6.5240452443760866e-01  5.5418115758023223e-01  8.0000000000000000e+00  6.4386555838014532e+00  4.8528043437058850e+00  3.5545222299506611e+00  2.5635162838978189e+00  1.8358009487714793e+00  1.3121479172427506e+00  9.3902528038950372e-01  6.7512997017823773e-01  4.9594525831782615e-01  4.2428825079363719e-01  8.0000000000000000e+00  5.5694085309635932e+00  3.8598886554437160e+00  2.6806658066330904e+00  1.8652607383678428e+00  1.3035334441793667e+00  9.1609791186473699e-01  6.4791108273198095e-01  4.6253016814012032e-01  3.4083724521382536e-01  2.8876607533954712e-01  5.0331507723553248e-01  -1.7125835299797160e-01  -2.4555334841791893e-01  -1.7752204289435072e-01  -1.2726920330058392e-01  -9.0772537685099866e-02  -6.4741366458165875e-02  -4.6194143905112180e-02  -3.3116813485793185e-02  -2.5174842832676177e-02  -4.3996364592037228e-02  -1.1367393152371132e-01  -3.9514038021712544e-01  -1.8511899122197842e-01  -5.5916266561736504e-02  -2.8935748129620808e-02  -1.7021686362553461e-02  -1.0426724237060120e-02  -6.5718676257500034e-03  -4.3657599585959529e-03  -2.0489484300036213e-03  -1.8720641765259537e-03  -2.9870248673961808e-01  -1.0926257831779361e-01  -8.1076978841271408e-02  -5.0384980761447082e-02  -3.2218358496167276e-02  -2.1607894808050518e-02  -1.5072818613381609e-02  -1.0560544824981772e-02  -6.3865278544430332e-03  -9.0829730337014299e-03  -2.0255135596290116e-03  -3.9346660502396219e-01  -1.7055903394461877e-01  -1.4628685089891749e-01  -1.3418589223439376e-01  -1.0889658058239650e-01  -8.3582912824927996e-02  -6.2121137441722124e-02  -4.5379246830762568e-02  -3.3314460066676023e-02  -3.1347883513550986e-02  9.2732260878708353e-04  8.0000000000000000e+00  6.0330012993848712e+00  4.4916076421461852e+00  3.2783209680367769e+00  2.3626064558239035e+00  1.6927738632824565e+00  1.2110134813839828e+00  8.6700488704524270e-01  6.2327900693060345e-01  4.5230382299383876e-01  3.9297372887970777e-01  8.0000000000000000e+00  6.9542906304506378e+00  5.5967479666676043e+00  4.3070754283126051e+00  3.2204916198513658e+00  2.3667156759600041e+00  1.7227122967660227e+00  1.2481913496318564e+00  9.0499122558451450e-01  6.5597826252978431e-01  5.5377540147340953e-01  8.0000000000000000e+00  7.3988910018238192e+00  6.3301083858917337e+00  5.1172432364262548e+00  3.9716588853125572e+00  2.9998033644286863e+00  2.2273757394550984e+00  1.6374259787031222e+00  1.1994708811300883e+00  8.7194441256910848e-01  7.3182204557742958e-01  8.0000000000000000e+00  7.5034087479216467e+00  6.5358767236256163e+00  5.3693218510167364e+00  4.2218947223659935e+00  3.2209707816975555e+00  2.4097680313699774e+00  1.7817064089884167e+00  1.3100788947052526e+00  9.5653166514784915e-01  8.0443033317413459e-01  8.0000000000000000e+00  7.3636468925104905e+00  6.2763261626631150e+00  5.0605629549897149e+00  3.9212736694938557e+00  2.9589450143318938e+00  2.1958818045616439e+00  1.6140306565586704e+00  1.1813478246157372e+00  8.6532709365796934e-01  7.3165306353824167e-01  8.0000000000000000e+00  6.8749387190149376e+00  5.4994885609528401e+00  4.2177371104458166e+00  3.1468541072588581e+00  2.3092331568656319e+00  1.6792464401943406e+00  1.2163630421012521e+00  8.8170786970280979e-01  6.4934916015632260e-01  5.5388890166932081e-01  8.0000000000000000e+00  5.9981261829699939e+00  4.4167951202691409e+00  3.2035338493457481e+00  2.2969916971151050e+00  1.6392390446805842e+00  1.1695619868818434e+00  8.3656692490358775e-01  6.0242641363534599e-01  4.4644827209340626e-01  3.7767431822307357e-01  4.5286568775898561e-01  -2.3763898740532061e-01  -3.1167045567112645e-01  -2.3759549752201267e-01  -1.7963877466899897e-01  -1.3122768987563097e-01  -9.4348253269864110e-02  -6.7355956118998930e-02  -4.8223733225201626e-02  -3.6908363869128546e-02  -6.1182403956809031e-02  -1.0220836707330844e-01  -4.0911353663776678e-01  -1.9659674155161355e-01  -5.3437626197072693e-02  -3.1356364454846117e-02  -1.8339710443476768e-02  -1.0846690360961002e-02  -6.7294511610823818e-03  -4.4676197039430158e-03  -1.5956076844335248e-03  -5.7989301115006736e-04  -3.2836603524503072e-01  -1.2817046196088253e-01  -9.7187109520219570e-02  -6.2473656050198986e-02  -4.1007734620610442e-02  -2.7748678031899680e-02  -1.9229577012334090e-02  -1.3258540699288852e-02  -8.2397097089184808e-03  -9.6228568608667294e-03  -1.9518391108959954e-03  -3.8666729862557447e-01  -1.5029464437896134e-01  -1.2546116635442461e-01  -1.1484882276335864e-01  -9.2467598719084582e-02  -7.0296580655476185e-02  -5.1540943761772248e-02  -3.6814926206172049e-02  -2.6449154717069021e-02  -2.5252069462190590e-02  4.4712624434928459e-03  8.0000000000000000e+00  6.1280374068666834e+00  4.6294326763402269e+00  3.4179121658163156e+00  2.4843299270322721e+00  1.7906023243714271e+00  1.2854834693902810e+00  9.2120795087034624e-01  6.6058349626301427e-01  4.7818705104767617e-01  4.1387455026974868e-01  8.0000000000000000e+00  7.0592306615783746e+00  5.7728456512029380e+00  4.5018827171412665e+00  3.4001007894549047e+00  2.5163526558084954e+00  1.8393895355210665e+00  1.3346128270779423e+00  9.6544621816529685e-01  6.9767057240207020e-01  5.8766274503137217e-01  8.0000000000000000e+00  7.5033301757685580e+00  6.5351383460447776e+00  5.3673453330328336e+00  4.2181707735944611e+00  3.2149704107353942e+00  2.4009921034968786e+00  1.7697721373477902e+00  1.2950436128004126e+00  9.3943242367498880e-01  7.8748174044851160e-01  8.0000000000000000e+00  7.6026223376906596e+00  6.7431869419701078e+00  5.6341558907628153e+00  4.4923247937668433e+00  3.4631699568730689e+00  2.6089091420902819e+00  1.9359200857191607e+00  1.4236227336175802e+00  1.0380491182738216e+00  8.7192715859468650e-01  8.0000000000000000e+00  7.4616499595786951e+00  6.4724903460091783e+00  5.3050178912175667e+00  4.1679843137181471e+00  3.1779890609656021e+00  2.3745557044466508e+00  1.7515849479256709e+00  1.2826819879493283e+00  9.3835200521463302e-01  7.9167340805084685e-01  8.0000000000000000e+00  6.9750255626855289e+00  5.6734265747760784e+00  4.4145190290005525e+00  3.3330505740683960e+00  2.4666866389654909e+00  1.8028894413355847e+00  1.3089367918131245e+00  9.4881176915125809e-01  6.9747177828357376e-01  5.9277663091451016e-01  8.0000000000000000e+00  6.0942296732203305e+00  4.5533829320090033e+00  3.3356267714852201e+00  2.4073939467918466e+00  1.7246741351064732e+00  1.2328935886518992e+00  8.8233905620955189e-01  6.3497685453384467e-01  4.6974048457175444e-01  3.9529603673560432e-01  4.4694316615595470e-01  -2.5771020176107645e-01  -3.7232188570693414e-01  -3.1135044157733172e-01  -2.4548852871030841e-01  -1.8327587045606830e-01  -1.3342620389246793e-01  -9.5923670372236994e-02  -6.8892184340968471e-02  -5.2377571364881186e-02  -7.9687670468632871e-02  -8.6199501633645564e-02  -3.8535526507794959e-01  -1.8205465743437840e-01  -4.6425182869127772e-02  -2.5710354220968838e-02  -1.2152728017355060e-02  -6.0137348237351857e-03  -3.4704380099543387e-03  -2.3820794595809059e-03  -3.5296634064617314e-05  1.8676702047996780e-03  -3.5899694486266948e-01  -1.2927103521210465e-01  -9.2583183582282860e-02  -5.8204285582462593e-02  -3.7287839197503191e-02  -2.4536807578295544e-02  -1.6405147167164069e-02  -1.0703783872500665e-02  -6.0721591997562312e-03  -6.8210841392070337e-03  -6.9944547072900063e-04  -3.0802248618810996e-01  -7.9518556441920157e-02  -5.6297825227992121e-02  -5.6671529700179891e-02  -4.7306630385634763e-02  -3.6751736212135705e-02  -2.7178906337175134e-02  -1.9259658349274317e-02  -1.3873544271033168e-02  -1.4850427992742254e-02  7.3725106072587308e-03  8.0000000000000000e+00  6.0048938533392615e+00  4.4499187398634588e+00  3.2342375165434065e+00  2.3213260498037909e+00  1.6554049878293551e+00  1.1765993714962473e+00  8.3387236030402045e-01  5.8911508458554063e-01  4.2001902285565323e-01  3.6051596926649593e-01  8.0000000000000000e+00  6.9209321570486813e+00  5.5436586349853307e+00  4.2479403987184874e+00  3.1633848849143065e+00  2.3144662009718200e+00  1.6746362439854334e+00  1.2018897672624345e+00  8.5665591948954156e-01  6.1086405530357346e-01  5.1214694048532661e-01  8.0000000000000000e+00  7.3634664847225615e+00  6.2747222659552007e+00  5.0564861385985695e+00  3.9137996516356091e+00  2.9469959226446840e+00  2.1781590815428071e+00  1.5889034754811797e+00  1.1473645178103997e+00  8.2381837386589729e-01  6.8884782380843124e-01  8.0000000000000000e+00  7.4615310734591294e+00  6.4716419390284008e+00  5.3029009636719247e+00  4.1640689583778947e+00  3.1716271671309859e+00  2.3648983850020953e+00  1.7373680711444186e+00  1.2624065520827692e+00  9.1218639642612964e-01  7.6404686185340009e-01  8.0000000000000000e+00  7.3198055550718051e+00  6.2127511663528594e+00  4.9989181833309235e+00  3.8756697423349888e+00  2.9228367627082452e+00  2.1619848881183916e+00  1.5786422161526317e+00  1.1427601526072046e+00  8.2785062178783908e-01  6.9419206016052148e-01  8.0000000000000000e+00  6.8456010517606316e+00  5.4570877855218738e+00  4.1802307980942981e+00  3.1271666701051788e+00  2.2918562054882972e+00  1.6576143053400589e+00  1.1902604127316518e+00  8.5248750516987204e-01  6.1922853841624970e-01  5.2023748524737390e-01  8.000000000000