<?xml version="1.0"?>
<VTKFile type="UnstructuredGrid"  version="0.1"  >
<UnstructuredGrid>
<Piece  NumberOfPoints="539" NumberOfCells="2160">
<Points>
<DataArray  type="Float64"  NumberOfComponents="3"  format="ascii">0 0.2 0.2  0.1 0.2 0.2  0.1 0.3 0.2  0.1 0.3 0.3  0.1 0.2 0.3  0 0.2 0.3  0 0.3 0.2  0 0.3 0.3  0.2 0.2 0.2  0.2 0.3 0.2  0.2 0.3 0.3  0.2 0.2 0.3  0.3 0.2 0.2  0.3 0.3 0.2  0.3 0.3 0.3  0.3 0.2 0.3  0.4 0.2 0.2  0.4 0.3 0.2  0.4 0.3 0.3  0.4 0.2 0.3  0.5 0.2 0.2  0.5 0.3 0.2  0.5 0.3 0.3  0.5 0.2 0.3  0.6 0.2 0.2  0.6 0.3 0.2  0.6 0.3 0.3  0.6 0.2 0.3  0.7 0.2 0.2  0.7 0.3 0.2  0.7 0.3 0.3  0.7 0.2 0.3  0.8 0.2 0.2  0.8 0.3 0.2  0.8 0.3 0.3  0.8 0.2 0.3  0.9 0.2 0.2  0.9 0.3 0.2  0.9 0.3 0.3  0.9 0.2 0.3  1 0.2 0.2  1 0.3 0.2  1 0.3 0.3  1 0.2 0.3  0.1 0.4 0.2  0.1 0.4 0.3  0 0.4 0.2  0 0.4 0.3  0.2 0.4 0.2  0.2 0.4 0.3  0.3 0.4 0.2  0.3 0.4 0.3  0.4 0.4 0.2  0.4 0.4 0.3  0.5 0.4 0.2  0.5 0.4 0.3  0.6 0.4 0.2  0.6 0.4 0.3  0.7 0.4 0.2  0.7 0.4 0.3  0.8 0.4 0.2  0.8 0.4 0.3  0.9 0.4 0.2  0.9 0.4 0.3  1 0.4 0.2  1 0.4 0.3  0.1 0.5 0.2  0.1 0.5 0.3  0 0.5 0.2  0 0.5 0.3  0.2 0.5 0.2  0.2 0.5 0.3  0.3 0.5 0.2  0.3 0.5 0.3  0.4 0.5 0.2  0.4 0.5 0.3  0.5 0.5 0.2  0.5 0.5 0.3  0.6 0.5 0.2  0.6 0.5 0.3  0.7 0.5 0.2  0.7 0.5 0.3  0.8 0.5 0.2  0.8 0.5 0.3  0.9 0.5 0.2  0.9 0.5 0.3  1 0.5 0.2  1 0.5 0.3  0.1 0.6 0.2  0.1 0.6 0.3  0 0.6 0.2  0 0.6 0.3  0.2 0.6 0.2  0.2 0.6 0.3  0.3 0.6 0.2  0.3 0.6 0.3  0.4 0.6 0.2  0.4 0.6 0.3  0.5 0.6 0.2  0.5 0.6 0.3  0.6 0.6 0.2  0.6 0.6 0.3  0.7 0.6 0.2  0.7 0.6 0.3  0.8 0.6 0.2  0.8 0.6 0.3  0.9 0.6 0.2  0.9 0.6 0.3  1 0.6 0.2  1 0.6 0.3  0.1 0.7 0.2  0.1 0.7 0.3  0 0.7 0.2  0 0.7 0.3  0.2 0.7 0.2  0.2 0.7 0.3  0.3 0.7 0.2  0.3 0.7 0.3  0.4 0.7 0.2  0.4 0.7 0.3  0.5 0.7 0.2  0.5 0.7 0.3  0.6 0.7 0.2  0.6 0.7 0.3  0.7 0.7 0.2  0.7 0.7 0.3  0.8 0.7 0.2  0.8 0.7 0.3  0.9 0.7 0.2  0.9 0.7 0.3  1 0.7 0.2  1 0.7 0.3  0.1 0.8 0.2  0.1 0.8 0.3  0 0.8 0.2  0 0.8 0.3  0.2 0.8 0.2  0.2 0.8 0.3  0.3 0.8 0.2  0.3 0.8 0.3  0.4 0.8 0.2  0.4 0.8 0.3  0.5 0.8 0.2  0.5 0.8 0.3  0.6 0.8 0.2  0.6 0.8 0.3  0.7 0.8 0.2  0.7 0.8 0.3  0.8 0.8 0.2  0.8 0.8 0.3  0.9 0.8 0.2  0.9 0.8 0.3  1 0.8 0.2  1 0.8 0.3  0.1 0.3 0.4  0.1 0.2 0.4  0 0.2 0.4  0 0.3 0.4  0.2 0.3 0.4  0.2 0.2 0.4  0.3 0.3 0.4  0.3 0.2 0.4  0.4 0.3 0.4  0.4 0.2 0.4  0.5 0.3 0.4  0.5 0.2 0.4  0.6 0.3 0.4  0.6 0.2 0.4  0.7 0.3 0.4  0.7 0.2 0.4  0.8 0.3 0.4  0.8 0.2 0.4  0.9 0.3 0.4  0.9 0.2 0.4  1 0.3 0.4  1 0.2 0.4  0.1 0.4 0.4  0 0.4 0.4  0.2 0.4 0.4  0.3 0.4 0.4  0.4 0.4 0.4  0.5 0.4 0.4  0.6 0.4 0.4  0.7 0.4 0.4  0.8 0.4 0.4  0.9 0.4 0.4  1 0.4 0.4  0.1 0.5 0.4  0 0.5 0.4  0.2 0.5 0.4  0.3 0.5 0.4  0.4 0.5 0.4  0.5 0.5 0.4  0.6 0.5 0.4  0.7 0.5 0.4  0.8 0.5 0.4  0.9 0.5 0.4  1 0.5 0.4  0.1 0.6 0.4  0 0.6 0.4  0.2 0.6 0.4  0.3 0.6 0.4  0.4 0.6 0.4  0.5 0.6 0.4  0.6 0.6 0.4  0.7 0.6 0.4  0.8 0.6 0.4  0.9 0.6 0.4  1 0.6 0.4  0.1 0.7 0.4  0 0.7 0.4  0.2 0.7 0.4  0.3 0.7 0.4  0.4 0.7 0.4  0.5 0.7 0.4  0.6 0.7 0.4  0.7 0.7 0.4  0.8 0.7 0.4  0.9 0.7 0.4  1 0.7 0.4  0.1 0.8 0.4  0 0.8 0.4  0.2 0.8 0.4  0.3 0.8 0.4  0.4 0.8 0.4  0.5 0.8 0.4  0.6 0.8 0.4  0.7 0.8 0.4  0.8 0.8 0.4  0.9 0.8 0.4  1 0.8 0.4  0.1 0.3 0.5  0.1 0.2 0.5  0 0.2 0.5  0 0.3 0.5  0.2 0.3 0.5  0.2 0.2 0.5  0.3 0.3 0.5  0.3 0.2 0.5  0.4 0.3 0.5  0.4 0.2 0.5  0.5 0.3 0.5  0.5 0.2 0.5  0.6 0.3 0.5  0.6 0.2 0.5  0.7 0.3 0.5  0.7 0.2 0.5  0.8 0.3 0.5  0.8 0.2 0.5  0.9 0.3 0.5  0.9 0.2 0.5  1 0.3 0.5  1 0.2 0.5  0.1 0.4 0.5  0 0.4 0.5  0.2 0.4 0.5  0.3 0.4 0.5  0.4 0.4 0.5  0.5 0.4 0.5  0.6 0.4 0.5  0.7 0.4 0.5  0.8 0.4 0.5  0.9 0.4 0.5  1 0.4 0.5  0.1 0.5 0.5  0 0.5 0.5  0.2 0.5 0.5  0.3 0.5 0.5  0.4 0.5 0.5  0.5 0.5 0.5  0.6 0.5 0.5  0.7 0.5 0.5  0.8 0.5 0.5  0.9 0.5 0.5  1 0.5 0.5  0.1 0.6 0.5  0 0.6 0.5  0.2 0.6 0.5  0.3 0.6 0.5  0.4 0.6 0.5  0.5 0.6 0.5  0.6 0.6 0.5  0.7 0.6 0.5  0.8 0.6 0.5  0.9 0.6 0.5  1 0.6 0.5  0.1 0.7 0.5  0 0.7 0.5  0.2 0.7 0.5  0.3 0.7 0.5  0.4 0.7 0.5  0.5 0.7 0.5  0.6 0.7 0.5  0.7 0.7 0.5  0.8 0.7 0.5  0.9 0.7 0.5  1 0.7 0.5  0.1 0.8 0.5  0 0.8 0.5  0.2 0.8 0.5  0.3 0.8 0.5  0.4 0.8 0.5  0.5 0.8 0.5  0.6 0.8 0.5  0.7 0.8 0.5  0.8 0.8 0.5  0.9 0.8 0.5  1 0.8 0.5  0.1 0.3 0.6  0.1 0.2 0.6  0 0.2 0.6  0 0.3 0.6  0.2 0.3 0.6  0.2 0.2 0.6  0.3 0.3 0.6  0.3 0.2 0.6  0.4 0.3 0.6  0.4 0.2 0.6  0.5 0.3 0.6  0.5 0.2 0.6  0.6 0.3 0.6  0.6 0.2 0.6  0.7 0.3 0.6  0.7 0.2 0.6  0.8 0.3 0.6  0.8 0.2 0.6  0.9 0.3 0.6  0.9 0.2 0.6  1 0.3 0.6  1 0.2 0.6  0.1 0.4 0.6  0 0.4 0.6  0.2 0.4 0.6  0.3 0.4 0.6  0.4 0.4 0.6  0.5 0.4 0.6  0.6 0.4 0.6  0.7 0.4 0.6  0.8 0.4 0.6  0.9 0.4 0.6  1 0.4 0.6  0.1 0.5 0.6  0 0.5 0.6  0.2 0.5 0.6  0.3 0.5 0.6  0.4 0.5 0.6  0.5 0.5 0.6  0.6 0.5 0.6  0.7 0.5 0.6  0.8 0.5 0.6  0.9 0.5 0.6  1 0.5 0.6  0.1 0.6 0.6  0 0.6 0.6  0.2 0.6 0.6  0.3 0.6 0.6  0.4 0.6 0.6  0.5 0.6 0.6  0.6 0.6 0.6  0.7 0.6 0.6  0.8 0.6 0.6  0.9 0.6 0.6  1 0.6 0.6  0.1 0.7 0.6  0 0.7 0.6  0.2 0.7 0.6  0.3 0.7 0.6  0.4 0.7 0.6  0.5 0.7 0.6  0.6 0.7 0.6  0.7 0.7 0.6  0.8 0.7 0.6  0.9 0.7 0.6  1 0.7 0.6  0.1 0.8 0.6  0 0.8 0.6  0.2 0.8 0.6  0.3 0.8 0.6  0.4 0.8 0.6  0.5 0.8 0.6  0.6 0.8 0.6  0.7 0.8 0.6  0.8 0.8 0.6  0.9 0.8 0.6  1 0.8 0.6  0.1 0.3 0.7  0.1 0.2 0.7  0 0.2 0.7  0 0.3 0.7  0.2 0.3 0.7  0.2 0.2 0.7  0.3 0.3 0.7  0.3 0.2 0.7  0.4 0.3 0.7  0.4 0.2 0.7  0.5 0.3 0.7  0.5 0.2 0.7  0.6 0.3 0.7  0.6 0.2 0.7  0.7 0.3 0.7  0.7 0.2 0.7  0.8 0.3 0.7  0.8 0.2 0.7  0.9 0.3 0.7  0.9 0.2 0.7  1 0.3 0.7  1 0.2 0.7  0.1 0.4 0.7  0 0.4 0.7  0.2 0.4 0.7  0.3 0.4 0.7  0.4 0.4 0.7  0.5 0.4 0.7  0.6 0.4 0.7  0.7 0.4 0.7  0.8 0.4 0.7  0.9 0.4 0.7  1 0.4 0.7  0.1 0.5 0.7  0 0.5 0.7  0.2 0.5 0.7  0.3 0.5 0.7  0.4 0.5 0.7  0.5 0.5 0.7  0.6 0.5 0.7  0.7 0.5 0.7  0.8 0.5 0.7  0.9 0.5 0.7  1 0.5 0.7  0.1 0.6 0.7  0 0.6 0.7  0.2 0.6 0.7  0.3 0.6 0.7  0.4 0.6 0.7  0.5 0.6 0.7  0.6 0.6 0.7  0.7 0.6 0.7  0.8 0.6 0.7  0.9 0.6 0.7  1 0.6 0.7  0.1 0.7 0.7  0 0.7 0.7  0.2 0.7 0.7  0.3 0.7 0.7  0.4 0.7 0.7  0.5 0.7 0.7  0.6 0.7 0.7  0.7 0.7 0.7  0.8 0.7 0.7  0.9 0.7 0.7  1 0.7 0.7  0.1 0.8 0.7  0 0.8 0.7  0.2 0.8 0.7  0.3 0.8 0.7  0.4 0.8 0.7  0.5 0.8 0.7  0.6 0.8 0.7  0.7 0.8 0.7  0.8 0.8 0.7  0.9 0.8 0.7  1 0.8 0.7  0.1 0.3 0.8  0.1 0.2 0.8  0 0.2 0.8  0 0.3 0.8  0.2 0.3 0.8  0.2 0.2 0.8  0.3 0.3 0.8  0.3 0.2 0.8  0.4 0.3 0.8  0.4 0.2 0.8  0.5 0.3 0.8  0.5 0.2 0.8  0.6 0.3 0.8  0.6 0.2 0.8  0.7 0.3 0.8  0.7 0.2 0.8  0.8 0.3 0.8  0.8 0.2 0.8  0.9 0.3 0.8  0.9 0.2 0.8  1 0.3 0.8  1 0.2 0.8  0.1 0.4 0.8  0 0.4 0.8  0.2 0.4 0.8  0.3 0.4 0.8  0.4 0.4 0.8  0.5 0.4 0.8  0.6 0.4 0.8  0.7 0.4 0.8  0.8 0.4 0.8  0.9 0.4 0.8  1 0.4 0.8  0.1 0.5 0.8  0 0.5 0.8  0.2 0.5 0.8  0.3 0.5 0.8  0.4 0.5 0.8  0.5 0.5 0.8  0.6 0.5 0.8  0.7 0.5 0.8  0.8 0.5 0.8  0.9 0.5 0.8  1 0.5 0.8  0.1 0.6 0.8  0 0.6 0.8  0.2 0.6 0.8  0.3 0.6 0.8  0.4 0.6 0.8  0.5 0.6 0.8  0.6 0.6 0.8  0.7 0.6 0.8  0.8 0.6 0.8  0.9 0.6 0.8  1 0.6 0.8  0.1 0.7 0.8  0 0.7 0.8  0.2 0.7 0.8  0.3 0.7 0.8  0.4 0.7 0.8  0.5 0.7 0.8  0.6 0.7 0.8  0.7 0.7 0.8  0.8 0.7 0.8  0.9 0.7 0.8  1 0.7 0.8  0.1 0.8 0.8  0 0.8 0.8  0.2 0.8 0.8  0.3 0.8 0.8  0.4 0.8 0.8  0.5 0.8 0.8  0.6 0.8 0.8  0.7 0.8 0.8  0.8 0.8 0.8  0.9 0.8 0.8  1 0.8 0.8  </DataArray>
</Points>
<Cells>
[...]
<PointData  Vectors="f_23"> 
<DataArray  type="Float64"  Name="f_23"  NumberOfComponents="3" format="ascii">7.3517288577976190e-04 1.8481842334062588e-04 2.6859526284206682e-07  6.6319896532697118e-04 2.6445697388716676e-04 -9.5233304415913753e-06  7.3788540997532146e-04 1.9121582783131715e-04 1.1691226672003008e-06  7.8940034782555069e-02 2.8734674280989477e-04 5.3135452122425272e-04  6.5540284321014409e-04 2.5276029136672598e-04 -6.3100368110204749e-06  7.1906703956245920e-04 1.7329362603290800e-04 4.8522030570311254e-06  8.0469347508632715e-04 1.2721872176221663e-04 4.4370039653818246e-06  7.7975205302513784e-02 1.1516109626026002e-03 1.3408493496343619e-03  5.6096647936731189e-04 4.0217269187614753e-04 -3.6284866435394351e-05  6.3713764524685971e-04 3.0892729730385273e-04 -1.1983002202941646e-05  7.8213233140314184e-02 6.4327318993187519e-05 2.7745720441724512e-04  5.5486030385263339e-04 4.1039533456877338e-04 -3.4076787095253385e-05  4.2467504202338240e-04 5.1442018065094475e-04 -8.2806526171019874e-05  5.0014001399540254e-04 4.0426638835412438e-04 -3.7357524112723594e-05  7.8120934440070497e-02 -8.7497609347936291e-05 3.6265117365154618e-04  4.1397830670324777e-04 5.6403945111947078e-04 -9.1372065341401444e-05  2.6235408101270616e-04 5.8035325991820949e-04 -1.3666727228372891e-04  3.2687575825701877e-04 4.6551889832358647e-04 -7.0855394511246925e-05  7.7869646509455187e-02 -2.5641588359737297e-04 5.5190180180602895e-04  2.5868338235517926e-04 6.8898361310926453e-04 -1.7372991606850590e-04  5.9615695306242857e-05 5.7169385869208712e-04 -1.6607348338944759e-04  1.0518986153355836e-04 4.7330262155252905e-04 -9.2635295023509010e-05  7.7439799173121854e-02 -4.6527244453817279e-04 8.1076361871065632e-04  9.2384662226158013e-05 7.4476390135251179e-04 -2.4959132974078108e-04  -2.2308429867252648e-04 4.7476039721558829e-04 -1.3566288947923060e-04  -1.9276003016149921e-04 4.1373516062668034e-04 -7.8035625392483535e-05  7.6866377703255120e-02 -6.5031386618462871e-04 1.0546991049325471e-03  -1.2059508050963529e-04 6.8312153799125264e-04 -2.5861997829009430e-04  -6.1274871508680258e-04 3.1753371554322374e-04 -5.5201389243272375e-05  -5.8670360651375572e-04 2.9754638685762817e-04 -2.8228106364008524e-05  7.6462259632807117e-02 -7.5635010632687345e-04 1.0681737403440475e-03  -4.4726641677556608e-04 4.9903101150516622e-04 -1.6389295818508814e-04  -1.0221636395030002e-03 1.5969766511737387e-04 2.0386003062765354e-06  -1.0134514179836985e-03 1.6686884378458048e-04 8.8573722345675798e-06  7.7209253486892310e-02 -7.5301396904430939e-04 3.9806307638776611e-04  -8.7727349816192927e-04 2.6353253676449485e-04 -5.5357926595623355e-05  -1.2739159570626566e-03 5.3880497289318325e-05 -1.4220159033948157e-05  -1.2983789837321138e-03 6.2301432693214522e-05 8.5316557642035471e-06  8.0204085797730529e-02 -5.4101025574519995e-04 -7.2461026762550573e-04  -1.2158896592904859e-03 1.0651331509701964e-04 -4.2363633669049979e-05  -1.4038411054244340e-03 7.0291357071246711e-05 1.4757814383267397e-05  -1.4152670239958364e-03 5.2721563645044645e-05 2.4060843865595535e-05  8.2927604164355059e-02 2.4005302401483000e-04 1.5010703804998679e-03  -1.3810431999596734e-03 8.5594310147999657e-05 -1.8457243966259419e-05  8.4300478050039626e-04 1.2172652693368155e-04 1.0168236242528359e-05  1.1638689156702912e-01 -2.1920007202323185e-04 4.2123421758548342e-04  9.0884292034270481e-04 8.1762022312017516e-05 9.4295856288151450e-06  1.1528196576513430e-01 1.1411415240948741e-03 1.3879181707216472e-03  7.2529547338497969e-04 2.0174311699361393e-04 1.1136105077587151e-05  1.1574317464444665e-01 -2.4064693872215005e-04 2.2203076062550994e-04  5.6605894102005260e-04 2.6909089289478810e-04 5.3670284213585593e-06  1.1548853907016679e-01 -2.9076743305185391e-04 2.2086371468966865e-04  3.5739517124478971e-04 3.1138174930114864e-04 -3.6946283704117651e-06  1.1527251213587970e-01 -4.0717415370764443e-04 2.5121426962501213e-04  8.8126496069482573e-05 3.1654458700526128e-04 -6.0788763539887225e-06  1.1500034929602544e-01 -5.3495389614997249e-04 2.6214876160819721e-04  -2.5677866479870327e-04 2.7763056677120566e-04 8.8994363107404589e-06  1.1475145453152863e-01 -5.7647222641083384e-04 1.7449270269831173e-04  -6.7851083480982793e-04 2.0287679726361353e-04 3.5447257589228235e-05  1.1479743005335054e-01 -4.3953471690164726e-04 -1.3109561209348572e-04  -1.1073477447552905e-03 1.1915549390694000e-04 4.1646934569675636e-05  1.1567410979062109e-01 -1.2876026991433668e-04 -7.3588221591511487e-04  -1.3840385203415235e-03 5.2048818735972770e-05 2.4805419725483228e-05  1.1791929624905466e-01 2.3849925165916533e-04 -1.0702486752339425e-03  -1.4935550921187828e-03 3.9701454752792956e-05 4.6196848851796338e-05  1.2053087659561701e-01 1.2310804894279846e-04 1.5956846228319598e-03  9.1142849853530965e-04 7.5158343431600162e-05 1.5138589828293677e-05  1.2632654915760635e-01 -9.9752243934896875e-05 3.4193538790651813e-04  9.7618041300113697e-04 4.8806649521249312e-05 1.1471975194581497e-05  1.2538008197126721e-01 7.8946327571198874e-04 1.3241405012759215e-03  7.8589402625225773e-04 1.2763691196013697e-04 2.1649599005066295e-05  1.2577066510298079e-01 -2.3634475357529525e-04 1.4948703523509502e-04  6.0956064087998177e-04 1.7205266205040610e-04 2.5655173250216213e-05  1.2550017763391846e-01 -2.4061961981747983e-04 1.2736750349506013e-04  3.7325686732387779e-04 1.9796241575260965e-04 2.9094373325960748e-05  1.2524291783563171e-01 -2.6811790352730387e-04 1.1670697006120057e-04  6.9656276091191357e-05 1.9601240232110221e-04 3.7078729308940082e-05  1.2499179246782158e-01 -2.9056844843272346e-04 7.3057772502558777e-05  -3.0603207140066899e-04 1.6303686014076195e-04 5.3174052295771022e-05  1.2487905263844867e-01 -2.4071516993209410e-04 -6.8599569068181776e-05  -7.4196191365399141e-04 1.0924178402223942e-04 6.9054931873950800e-05  1.2517161576988409e-01 -5.4910123862391441e-05 -3.9284542973044346e-04  -1.1651104703329738e-03 5.8856363892519674e-05 5.9774246642491499e-05  1.2618868125905544e-01 2.4592056766845776e-04 -8.8090631010854690e-04  -1.4349977206201973e-03 2.6055906745180992e-05 3.4138626884293469e-05  1.2806291530666297e-01 4.9562635650005538e-04 -8.9534984094453605e-04  -1.5406352596680256e-03 2.2074394588228464e-05 5.3190509106543419e-05  1.3045481270046594e-01 1.5716701377766385e-04 1.3656138015455325e-03  9.5635335663748133e-04 4.3812101362706795e-05 1.6693509254738393e-05  1.1613987374245917e-01 -7.5272000211753257e-05 2.8505960766802278e-04  1.0173250758998894e-03 2.2141495355645222e-05 1.2675315918404912e-05  1.1529106856115648e-01 4.5577975252408148e-04 1.2303922834265434e-03  8.2930642024120190e-04 7.9528291253215774e-05 2.3727542117591464e-05  1.1567339496821899e-01 -1.5463854105351679e-04 1.1299606645124277e-04  6.4293371360334963e-04 1.1273693428489625e-04 2.9372570114752651e-05  1.1544517672872395e-01 -1.2080740292320085e-04 8.4145629123530847e-05  3.8658268082763061e-04 1.3373223953644589e-04 3.6179059738393032e-05  1.1520769129380976e-01 -7.9979034483378922e-05 6.6526675813702749e-05  5.7214890693874882e-05 1.3393731086284454e-04 4.6497946625490369e-05  1.1498869368749937e-01 -2.6422901935626471e-05 1.9967544433472599e-05  -3.4115409903750436e-04 1.1045642823143045e-04 6.0362694346441470e-05  1.1494295926943786e-01 6.5251348118484278e-05 -1.0766660804746819e-04  -7.8519093409035309e-04 7.1361332310856252e-05 7.0111907136590271e-05  1.1531062343362920e-01 2.0813416800142908e-04 -3.7769405208938487e-04  -1.1976355727275694e-03 3.7101019004822634e-05 5.6628318065322941e-05  1.1629672585196489e-01 3.5649918556458998e-04 -7.2867008090489092e-04  -1.4575156382492769e-03 1.0827317902068581e-05 3.2786136425504764e-05  1.1785750576491906e-01 3.4484110492443825e-04 -6.1174726050782543e-04  -1.5590328153507387e-03 1.6651598046834135e-05 4.6461543689735473e-05  1.1967590690432943e-01 6.1354253911481165e-05 1.1689986364734829e-03  9.9122902029346173e-04 2.0064968504437608e-05 1.6970891897806812e-05  7.9533181613559531e-02 -7.4869793872965335e-05 2.3027091741600726e-04  1.0426028967935874e-03 8.0811503032960571e-06 1.4101524114174794e-05  7.9461082400725649e-02 3.6892299224511446e-04 1.0063934207591013e-03  8.7249193089579315e-04 4.7329315059586439e-05 2.1546938394108153e-05  7.9157311200976410e-02 -3.6379182662595843e-05 8.8129908604283740e-05  6.8749263788274429e-04 7.9949456886475298e-05 2.2347189646892514e-05  7.9024288417217259e-02 7.5501726520967879e-05 5.7233550461428269e-05  4.2257637174977758e-04 1.0791271392874547e-04 2.5567404170499671e-05  7.8897814731643034e-02 1.8313857549570039e-04 4.2328696202958190e-05  7.7860591063104361e-05 1.2095821210915494e-04 3.2621380829340500e-05  7.8775510230265730e-02 3.0055500126051696e-04 -3.1036162524924200e-06  -3.3828311350406079e-04 1.1467876839052103e-04 4.1678988431209314e-05  7.8768257999883767e-02 4.2232099749204307e-04 -1.1485707087589183e-04  -7.9736783741730542e-04 9.2325011293888101e-05 4.7231565682672331e-05  7.9037241796842711e-02 5.2370937186288881e-04 -3.1814001463634450e-04  -1.2194953540114017e-03 6.3988359206046077e-05 3.8470386094082523e-05  7.9735173993338265e-02 5.5719909179521832e-04 -5.3566894450143843e-04  -1.4727832495382254e-03 3.3241801951002915e-05 2.3846763354752359e-05  8.1010727184398237e-02 4.6878412406799853e-04 -3.9171930459563583e-04  -1.5661729785586326e-03 2.9890106171517385e-05 2.9035818645145212e-05  8.1693605113211137e-02 -5.1210220832216926e-05 1.0632700488986525e-03  1.0269726232466220e-03 1.2243644615779064e-05 1.6539608503186900e-05  1.0406045516632451e-03 1.0496631699629545e-05 1.1846561015834896e-05  1.0591773274983723e-03 3.9629387478710428e-06 1.1408772139383730e-05  1.0655440862864405e-03 4.0996493364573113e-06 9.5811947332350594e-06  9.3549613029311209e-04 3.9050683261549580e-05 2.0386813829178030e-05  9.6811284240438369e-04 2.7840363712786235e-05 1.8466121265203075e-05  7.7891308907559586e-04 6.8650734693761369e-05 2.5994764173876137e-05  8.3713116572084684e-04 6.0395713511169344e-05 1.9791534488920761e-05  5.4815325073377739e-04 9.7875710125374323e-05 2.6249039713156668e-05  6.3636280879436462e-04 9.3764633837851446e-05 2.0745439468452713e-05  2.3581265911556181e-04 1.1673507132596530e-04 2.7222836256710253e-05  3.5805654526029524e-04 1.1730765546957814e-04 2.5063799005381413e-05  -1.5669016756770862e-04 1.1879235146183657e-04 3.0665059965199708e-05  1.5180083919027914e-06 1.2340457077984927e-04 3.3229618265164030e-05  -6.1369982457734639e-04 1.0310358528788214e-04 3.6116524183034805e-05  -4.2702442246318203e-04 1.1138002227988466e-04 4.2928925296953634e-05  -1.0797514657861708e-03 7.0959623423685460e-05 3.9147364592705639e-05  -8.9551362178244001e-04 8.7209633649312597e-05 4.6866469479372128e-05  -1.4281899055088938e-03 4.2514905097603629e-05 2.3943109911930744e-05  -1.2911266387563237e-03 5.3886004211260659e-05 3.4488905399834450e-05  -1.5575746356057427e-03 3.6729748472328251e-05 1.1001689338360696e-05  -1.4657891449952299e-03 3.8569193043770459e-05 2.3197457580027764e-05  1.1654232327397426e-01 2.1911744492814276e-04 2.0795141364003987e-04  6.4901537646042974e-04 2.5070532112572052e-04 1.0299628811426151e-05  7.2302872613925779e-04 1.6606613534585714e-04 1.8006195511339726e-05  1.1563151673835587e-01 1.1505598491666914e-03 1.1054149230887490e-03  1.1588248065402432e-01 5.8022544091285455e-05 1.5584900037547800e-04  5.2228658443084113e-04 4.2973425806862639e-04 -7.5878184440024098e-06  1.1589409374717442e-01 -9.7051125678232838e-05 3.3826887651055518e-04  3.4503330792797025e-04 6.3460704472467224e-04 -6.4207099810570891e-05  1.1580607640044578e-01 -2.8889472589710684e-04 6.4693005954128259e-04  1.5361204969096561e-04 8.5607492997970779e-04 -1.7341902270829969e-04  1.1550525072271510e-01 -5.8179266543928476e-04 1.0828298240557145e-03  -1.5094101525184279e-05 1.0493064843564996e-03 -3.2370722399658675e-04  1.1484247973689388e-01 -9.2377541800255688e-04 1.5251340352950766e-03  -1.5726293583809858e-04 1.1103118836344457e-03 -4.3695142745267464e-04  1.1374332348886403e-01 -1.0653994280941678e-03 1.6232290601219045e-03  -3.5798127561400731e-04 9.2699084014187267e-04 -3.7283590270508442e-04  1.1360535226639620e-01 -1.0685859261054499e-03 8.5389482114341011e-04  -7.0856398297031175e-04 5.3065661062833567e-04 -1.6166147083232534e-04  1.1785899953026328e-01 -1.0665081079686313e-03 -1.0360075021179252e-03  -1.0785205699000129e-03 2.1530730582463035e-04 -1.3409711713904067e-04  1.2254666887949121e-01 3.9810856460688631e-05 2.4204457720078767e-03  -1.3088115637267207e-03 1.5592086157706120e-04 -1.3792491344082882e-04  1.7504556198829754e-01 -3.2229631558753811e-04 1.7170117462026721e-04  1.7446775333418763e-01 1.2015037112123445e-03 1.1856736628371408e-03  1.7448682195557133e-01 -2.7734019328802361e-04 1.5952624527379268e-04  1.7419177770821700e-01 -3.6204596279636506e-04 2.9153381858251348e-04  1.7404556959161901e-01 -5.7579686196592176e-04 4.3734682410711260e-04  1.7385730504263430e-01 -8.7462456613272746e-04 5.5387730938529335e-04  1.7357114091529266e-01 -1.1178651412626286e-03 4.8673138700774406e-04  1.7332872324133597e-01 -1.0097498190436923e-03 -2.8982754158287609e-05  1.7391292559710403e-01 -3.8061120288115257e-04 -1.1682416150281527e-03  1.7681867540949153e-01 3.8841404626041950e-04 -1.9148773053643861e-03  1.8137294662546724e-01 -2.3761236465915536e-04 2.5699784265925908e-03  1.9173009699166593e-01 -1.5080548960556895e-04 1.2522422741623665e-04  1.9135278010230186e-01 8.3037732319431287e-04 1.1744062002051747e-03  1.9129357919282436e-01 -2.8451092511415241e-04 1.2779788016166699e-04  1.9097898040453196e-01 -3.0116316069015087e-04 2.2935630109699557e-04  1.9076480436396381e-01 -3.7976013879909058e-04 3.1591551533354645e-04  1.9055624221912323e-01 -4.9229233537305070e-04 3.5702845508796201e-04  1.9039099132185131e-01 -5.3709837678802132e-04 2.3865642513097197e-04  1.9052596716920711e-01 -3.4341284257060625e-04 -2.3485968765542129e-04  1.9155348863433547e-01 1.9346331554754120e-04 -1.1762819556587313e-03  1.9399787286945938e-01 8.1337051988077916e-04 -1.4982553277208311e-03  1.9785681953101988e-01 -2.5261572188993270e-05 2.1870163745976502e-03  1.7478872103726228e-01 -1.0889286716929507e-04 9.6929226717237506e-05  1.7453350106056470e-01 4.5779707997049249e-04 1.1208027255609719e-03  1.7444474548218519e-01 -1.9668800389468298e-04 1.0029058492702593e-04  1.7418495980674936e-01 -1.6186484027302136e-04 1.8271890053971353e-04  1.7398713970461260e-01 -1.3594302084022529e-04 2.4525873944713269e-04  1.7380355938540382e-01 -1.1525266697573126e-04 2.7108986977680323e-04  1.7371562878852323e-01 -5.2006920033758044e-05 1.7963824081584925e-04  1.7400546078212226e-01 1.2020737769472884e-04 -1.6944128143316943e-04  1.7510668219983616e-01 4.1381096842402443e-04 -8.6428306578856305e-04  1.7708972114587207e-01 5.9455504463153976e-04 -9.1671312089832725e-04  1.7962373001626822e-01 -1.4487582991913920e-04 1.9114962057570481e-03  1.1634293544009157e-01 -8.5535498295162511e-05 4.8990888942116047e-05  1.1687086870543430e-01 3.6345940312892440e-04 9.6776278394427044e-04  1.1608097961021489e-01 -5.5151491091373046e-05 5.1341030247617679e-05  1.1593502733244504e-01 5.8205883134380650e-05 1.1435480291421826e-04  1.1584995453627193e-01 1.7540371707770296e-04 1.5505288152118854e-04  1.1577747174583403e-01 2.9330194902731690e-04 1.6210794495668358e-04  1.1575976679730263e-01 4.2028221268280313e-04 8.1063685461019738e-05  1.1599285518262827e-01 5.5387991610215959e-04 -1.8085658337857542e-04  1.1680616976114305e-01 6.4885219128370415e-04 -6.1657425509552353e-04  1.1835346642757678e-01 5.9193607206169943e-04 -4.4619472590516407e-04  1.1905174357751988e-01 -1.9223305183068383e-04 1.7926197604554396e-03  1.0517214952501031e-03 1.1090640512001758e-05 4.7568708328145427e-06  1.0758784679970354e-03 6.5263523496970079e-06 6.9999258069268212e-06  9.7822833776370333e-04 2.8026374043148633e-05 1.3164023397849992e-05  8.4619533452416065e-04 5.8171085298464861e-05 1.9465533610181643e-05  6.5190166335860446e-04 8.7629090237926680e-05 2.6295423791876854e-05  3.8374643491620111e-04 1.0901350279418034e-04 3.8105909243862237e-05  3.7075557644826894e-05 1.1395603280493084e-04 5.7525643373405606e-05  -3.8913268592224445e-04 9.9905443471420095e-05 8.1093034366835784e-05  -8.7391519987272846e-04 7.3665821314463265e-05 9.2996679148006091e-05  -1.2998036153423626e-03 4.1288233294573786e-05 7.2905741066596117e-05  -1.4839322891068642e-03 2.4236007676701918e-05 6.0558754943882106e-05  1.2660560287828870e-01 2.0620243651458192e-04 1.0169046722359404e-04  6.5983245738880268e-04 2.3038614652695554e-04 3.5851010036154985e-05  7.4320687295947006e-04 1.4719397021811949e-04 3.1927580871959766e-05  1.2573825102212488e-01 1.1755628939883217e-03 8.8091623924278501e-04  1.2601520995137613e-01 2.0278629455776589e-05 8.8923907131871446e-06  5.0900232196740265e-04 4.1069014500119992e-04 4.8082187309571213e-05  1.2615088184949325e-01 -1.3114446693068360e-04 1.1458911904859922e-04  2.8832679924979720e-04 6.4799590578290295e-04 2.6766166779473228e-05  1.2617675204891463e-01 -3.3409498070995292e-04 3.4320553668285383e-04  2.9124904221300114e-05 9.6775784498352626e-04 -6.2180790032284321e-05  1.2598893608489056e-01 -7.1984516312152951e-04 7.6253969954737078e-04  -2.0546162456839870e-04 1.3682101167485899e-03 -2.5897368236270433e-04  1.2538222354391876e-01 -1.4158166542044667e-03 1.3461433775826877e-03  -3.4122305095329934e-04 1.7398902067529908e-03 -5.4883299352034680e-04  1.2389169228932903e-01 -2.1380890403581718e-03 1.7345416994961700e-03  -4.0074685333184535e-04 1.8033546214471978e-03 -7.1965069308916089e-04  1.2196651730392967e-01 -1.4506456559830337e-03 1.2359608916046147e-03  -4.8204099208254587e-04 1.2777362198111539e-03 -3.4711899748599267e-04  1.2719989275430937e-01 -1.3593836681500230e-03 -3.5322631534083834e-04  -7.0507972770515151e-04 5.6506655314222237e-04 -2.3585697809278065e-04  1.3834557625851365e-01 -1.5613114382939228e-03 4.2809921693388901e-03  -8.9590854248581446e-04 3.8882522920080333e-04 -5.7984820003084551e-04  1.9183971258124161e-01 -3.3633838329890937e-04 1.4439114742671497e-04  1.9130416620441565e-01 1.2204180819993086e-03 9.4618182801858158e-04  1.9134082101526578e-01 -2.9098714739550567e-04 7.5394290511969153e-05  1.9109715126800064e-01 -3.9188045170410451e-04 1.8247967566814319e-04  1.9095491577415313e-01 -6.6654653619277590e-04 3.3372200177909017e-04  1.9072993526474780e-01 -1.1450630365413420e-03 4.8645622456442919e-04  1.9033586777091427e-01 -1.7809918757185387e-03 4.7113317860472621e-04  1.8977953213070012e-01 -2.0557605837752237e-03 -9.8540751868117559e-05  1.8993312375662622e-01 -8.9192997477720564e-04 -1.5494880629674881e-03  1.9365517496012558e-01 1.2720124757917312e-03 -3.3862727018872368e-03  2.0184532806104633e-01 -7.8537800254264122e-04 3.8389616020856037e-03  2.1082158447956190e-01 -1.7120227393686605e-04 1.2630916099259871e-04  2.1048917031444664e-01 8.3111009767638166e-04 9.5680910843489928e-04  2.1045500817161933e-01 -2.9720834001413943e-04 6.6363996406828318e-05  2.1017991131153385e-01 -3.2533549252285491e-04 1.4766366011188320e-04  2.0996969918106156e-01 -4.4426385231321076e-04 2.3456738319419489e-04  2.0971813839007250e-01 -6.4771984600578967e-04 2.8355006954818257e-04  2.0939538093335205e-01 -8.3283059035577838e-04 1.8270990411061803e-04  2.0919416416020767e-01 -6.8481685864708040e-04 -2.7070301168769846e-04  2.1017502729585599e-01 2.3416915784383075e-04 -1.2668246866439485e-03  2.1370203440281196e-01 1.5925027218992996e-03 -2.6363161231368849e-03  2.1993021065434648e-01 -2.2095678039816611e-04 2.9334355026801504e-03  1.9160859589107798e-01 -1.2693579209941238e-04 1.0890667031852460e-04  1.9140593500364766e-01 4.4136074042158636e-04 9.3686540273977918e-04  1.9133546180660169e-01 -2.0673718026338874e-04 4.8224566818979663e-05  1.9111741320646922e-01 -1.6959130547404455e-04 1.1355540702706847e-04  1.9092790275515009e-01 -1.5811394188094187e-04 1.7418600797121896e-04  1.9071561111780222e-01 -1.6438866193700620e-04 2.02023741094