<?xml version="1.0"?>
<VTKFile type="UnstructuredGrid"  version="0.1"  >
<UnstructuredGrid>
<Piece  NumberOfPoints="539" NumberOfCells="2160">
<Points>
<DataArray  type="Float64"  NumberOfComponents="3"  format="ascii">0 0.2 0.2  0.1 0.2 0.2  0.1 0.3 0.2  0.1 0.3 0.3  0.1 0.2 0.3  0 0.2 0.3  0 0.3 0.2  0 0.3 0.3  0.2 0.2 0.2  0.2 0.3 0.2  0.2 0.3 0.3  0.2 0.2 0.3  0.3 0.2 0.2  0.3 0.3 0.2  0.3 0.3 0.3  0.3 0.2 0.3  0.4 0.2 0.2  0.4 0.3 0.2  0.4 0.3 0.3  0.4 0.2 0.3  0.5 0.2 0.2  0.5 0.3 0.2  0.5 0.3 0.3  0.5 0.2 0.3  0.6 0.2 0.2  0.6 0.3 0.2  0.6 0.3 0.3  0.6 0.2 0.3  0.7 0.2 0.2  0.7 0.3 0.2  0.7 0.3 0.3  0.7 0.2 0.3  0.8 0.2 0.2  0.8 0.3 0.2  0.8 0.3 0.3  0.8 0.2 0.3  0.9 0.2 0.2  0.9 0.3 0.2  0.9 0.3 0.3  0.9 0.2 0.3  1 0.2 0.2  1 0.3 0.2  1 0.3 0.3  1 0.2 0.3  0.1 0.4 0.2  0.1 0.4 0.3  0 0.4 0.2  0 0.4 0.3  0.2 0.4 0.2  0.2 0.4 0.3  0.3 0.4 0.2  0.3 0.4 0.3  0.4 0.4 0.2  0.4 0.4 0.3  0.5 0.4 0.2  0.5 0.4 0.3  0.6 0.4 0.2  0.6 0.4 0.3  0.7 0.4 0.2  0.7 0.4 0.3  0.8 0.4 0.2  0.8 0.4 0.3  0.9 0.4 0.2  0.9 0.4 0.3  1 0.4 0.2  1 0.4 0.3  0.1 0.5 0.2  0.1 0.5 0.3  0 0.5 0.2  0 0.5 0.3  0.2 0.5 0.2  0.2 0.5 0.3  0.3 0.5 0.2  0.3 0.5 0.3  0.4 0.5 0.2  0.4 0.5 0.3  0.5 0.5 0.2  0.5 0.5 0.3  0.6 0.5 0.2  0.6 0.5 0.3  0.7 0.5 0.2  0.7 0.5 0.3  0.8 0.5 0.2  0.8 0.5 0.3  0.9 0.5 0.2  0.9 0.5 0.3  1 0.5 0.2  1 0.5 0.3  0.1 0.6 0.2  0.1 0.6 0.3  0 0.6 0.2  0 0.6 0.3  0.2 0.6 0.2  0.2 0.6 0.3  0.3 0.6 0.2  0.3 0.6 0.3  0.4 0.6 0.2  0.4 0.6 0.3  0.5 0.6 0.2  0.5 0.6 0.3  0.6 0.6 0.2  0.6 0.6 0.3  0.7 0.6 0.2  0.7 0.6 0.3  0.8 0.6 0.2  0.8 0.6 0.3  0.9 0.6 0.2  0.9 0.6 0.3  1 0.6 0.2  1 0.6 0.3  0.1 0.7 0.2  0.1 0.7 0.3  0 0.7 0.2  0 0.7 0.3  0.2 0.7 0.2  0.2 0.7 0.3  0.3 0.7 0.2  0.3 0.7 0.3  0.4 0.7 0.2  0.4 0.7 0.3  0.5 0.7 0.2  0.5 0.7 0.3  0.6 0.7 0.2  0.6 0.7 0.3  0.7 0.7 0.2  0.7 0.7 0.3  0.8 0.7 0.2  0.8 0.7 0.3  0.9 0.7 0.2  0.9 0.7 0.3  1 0.7 0.2  1 0.7 0.3  0.1 0.8 0.2  0.1 0.8 0.3  0 0.8 0.2  0 0.8 0.3  0.2 0.8 0.2  0.2 0.8 0.3  0.3 0.8 0.2  0.3 0.8 0.3  0.4 0.8 0.2  0.4 0.8 0.3  0.5 0.8 0.2  0.5 0.8 0.3  0.6 0.8 0.2  0.6 0.8 0.3  0.7 0.8 0.2  0.7 0.8 0.3  0.8 0.8 0.2  0.8 0.8 0.3  0.9 0.8 0.2  0.9 0.8 0.3  1 0.8 0.2  1 0.8 0.3  0.1 0.3 0.4  0.1 0.2 0.4  0 0.2 0.4  0 0.3 0.4  0.2 0.3 0.4  0.2 0.2 0.4  0.3 0.3 0.4  0.3 0.2 0.4  0.4 0.3 0.4  0.4 0.2 0.4  0.5 0.3 0.4  0.5 0.2 0.4  0.6 0.3 0.4  0.6 0.2 0.4  0.7 0.3 0.4  0.7 0.2 0.4  0.8 0.3 0.4  0.8 0.2 0.4  0.9 0.3 0.4  0.9 0.2 0.4  1 0.3 0.4  1 0.2 0.4  0.1 0.4 0.4  0 0.4 0.4  0.2 0.4 0.4  0.3 0.4 0.4  0.4 0.4 0.4  0.5 0.4 0.4  0.6 0.4 0.4  0.7 0.4 0.4  0.8 0.4 0.4  0.9 0.4 0.4  1 0.4 0.4  0.1 0.5 0.4  0 0.5 0.4  0.2 0.5 0.4  0.3 0.5 0.4  0.4 0.5 0.4  0.5 0.5 0.4  0.6 0.5 0.4  0.7 0.5 0.4  0.8 0.5 0.4  0.9 0.5 0.4  1 0.5 0.4  0.1 0.6 0.4  0 0.6 0.4  0.2 0.6 0.4  0.3 0.6 0.4  0.4 0.6 0.4  0.5 0.6 0.4  0.6 0.6 0.4  0.7 0.6 0.4  0.8 0.6 0.4  0.9 0.6 0.4  1 0.6 0.4  0.1 0.7 0.4  0 0.7 0.4  0.2 0.7 0.4  0.3 0.7 0.4  0.4 0.7 0.4  0.5 0.7 0.4  0.6 0.7 0.4  0.7 0.7 0.4  0.8 0.7 0.4  0.9 0.7 0.4  1 0.7 0.4  0.1 0.8 0.4  0 0.8 0.4  0.2 0.8 0.4  0.3 0.8 0.4  0.4 0.8 0.4  0.5 0.8 0.4  0.6 0.8 0.4  0.7 0.8 0.4  0.8 0.8 0.4  0.9 0.8 0.4  1 0.8 0.4  0.1 0.3 0.5  0.1 0.2 0.5  0 0.2 0.5  0 0.3 0.5  0.2 0.3 0.5  0.2 0.2 0.5  0.3 0.3 0.5  0.3 0.2 0.5  0.4 0.3 0.5  0.4 0.2 0.5  0.5 0.3 0.5  0.5 0.2 0.5  0.6 0.3 0.5  0.6 0.2 0.5  0.7 0.3 0.5  0.7 0.2 0.5  0.8 0.3 0.5  0.8 0.2 0.5  0.9 0.3 0.5  0.9 0.2 0.5  1 0.3 0.5  1 0.2 0.5  0.1 0.4 0.5  0 0.4 0.5  0.2 0.4 0.5  0.3 0.4 0.5  0.4 0.4 0.5  0.5 0.4 0.5  0.6 0.4 0.5  0.7 0.4 0.5  0.8 0.4 0.5  0.9 0.4 0.5  1 0.4 0.5  0.1 0.5 0.5  0 0.5 0.5  0.2 0.5 0.5  0.3 0.5 0.5  0.4 0.5 0.5  0.5 0.5 0.5  0.6 0.5 0.5  0.7 0.5 0.5  0.8 0.5 0.5  0.9 0.5 0.5  1 0.5 0.5  0.1 0.6 0.5  0 0.6 0.5  0.2 0.6 0.5  0.3 0.6 0.5  0.4 0.6 0.5  0.5 0.6 0.5  0.6 0.6 0.5  0.7 0.6 0.5  0.8 0.6 0.5  0.9 0.6 0.5  1 0.6 0.5  0.1 0.7 0.5  0 0.7 0.5  0.2 0.7 0.5  0.3 0.7 0.5  0.4 0.7 0.5  0.5 0.7 0.5  0.6 0.7 0.5  0.7 0.7 0.5  0.8 0.7 0.5  0.9 0.7 0.5  1 0.7 0.5  0.1 0.8 0.5  0 0.8 0.5  0.2 0.8 0.5  0.3 0.8 0.5  0.4 0.8 0.5  0.5 0.8 0.5  0.6 0.8 0.5  0.7 0.8 0.5  0.8 0.8 0.5  0.9 0.8 0.5  1 0.8 0.5  0.1 0.3 0.6  0.1 0.2 0.6  0 0.2 0.6  0 0.3 0.6  0.2 0.3 0.6  0.2 0.2 0.6  0.3 0.3 0.6  0.3 0.2 0.6  0.4 0.3 0.6  0.4 0.2 0.6  0.5 0.3 0.6  0.5 0.2 0.6  0.6 0.3 0.6  0.6 0.2 0.6  0.7 0.3 0.6  0.7 0.2 0.6  0.8 0.3 0.6  0.8 0.2 0.6  0.9 0.3 0.6  0.9 0.2 0.6  1 0.3 0.6  1 0.2 0.6  0.1 0.4 0.6  0 0.4 0.6  0.2 0.4 0.6  0.3 0.4 0.6  0.4 0.4 0.6  0.5 0.4 0.6  0.6 0.4 0.6  0.7 0.4 0.6  0.8 0.4 0.6  0.9 0.4 0.6  1 0.4 0.6  0.1 0.5 0.6  0 0.5 0.6  0.2 0.5 0.6  0.3 0.5 0.6  0.4 0.5 0.6  0.5 0.5 0.6  0.6 0.5 0.6  0.7 0.5 0.6  0.8 0.5 0.6  0.9 0.5 0.6  1 0.5 0.6  0.1 0.6 0.6  0 0.6 0.6  0.2 0.6 0.6  0.3 0.6 0.6  0.4 0.6 0.6  0.5 0.6 0.6  0.6 0.6 0.6  0.7 0.6 0.6  0.8 0.6 0.6  0.9 0.6 0.6  1 0.6 0.6  0.1 0.7 0.6  0 0.7 0.6  0.2 0.7 0.6  0.3 0.7 0.6  0.4 0.7 0.6  0.5 0.7 0.6  0.6 0.7 0.6  0.7 0.7 0.6  0.8 0.7 0.6  0.9 0.7 0.6  1 0.7 0.6  0.1 0.8 0.6  0 0.8 0.6  0.2 0.8 0.6  0.3 0.8 0.6  0.4 0.8 0.6  0.5 0.8 0.6  0.6 0.8 0.6  0.7 0.8 0.6  0.8 0.8 0.6  0.9 0.8 0.6  1 0.8 0.6  0.1 0.3 0.7  0.1 0.2 0.7  0 0.2 0.7  0 0.3 0.7  0.2 0.3 0.7  0.2 0.2 0.7  0.3 0.3 0.7  0.3 0.2 0.7  0.4 0.3 0.7  0.4 0.2 0.7  0.5 0.3 0.7  0.5 0.2 0.7  0.6 0.3 0.7  0.6 0.2 0.7  0.7 0.3 0.7  0.7 0.2 0.7  0.8 0.3 0.7  0.8 0.2 0.7  0.9 0.3 0.7  0.9 0.2 0.7  1 0.3 0.7  1 0.2 0.7  0.1 0.4 0.7  0 0.4 0.7  0.2 0.4 0.7  0.3 0.4 0.7  0.4 0.4 0.7  0.5 0.4 0.7  0.6 0.4 0.7  0.7 0.4 0.7  0.8 0.4 0.7  0.9 0.4 0.7  1 0.4 0.7  0.1 0.5 0.7  0 0.5 0.7  0.2 0.5 0.7  0.3 0.5 0.7  0.4 0.5 0.7  0.5 0.5 0.7  0.6 0.5 0.7  0.7 0.5 0.7  0.8 0.5 0.7  0.9 0.5 0.7  1 0.5 0.7  0.1 0.6 0.7  0 0.6 0.7  0.2 0.6 0.7  0.3 0.6 0.7  0.4 0.6 0.7  0.5 0.6 0.7  0.6 0.6 0.7  0.7 0.6 0.7  0.8 0.6 0.7  0.9 0.6 0.7  1 0.6 0.7  0.1 0.7 0.7  0 0.7 0.7  0.2 0.7 0.7  0.3 0.7 0.7  0.4 0.7 0.7  0.5 0.7 0.7  0.6 0.7 0.7  0.7 0.7 0.7  0.8 0.7 0.7  0.9 0.7 0.7  1 0.7 0.7  0.1 0.8 0.7  0 0.8 0.7  0.2 0.8 0.7  0.3 0.8 0.7  0.4 0.8 0.7  0.5 0.8 0.7  0.6 0.8 0.7  0.7 0.8 0.7  0.8 0.8 0.7  0.9 0.8 0.7  1 0.8 0.7  0.1 0.3 0.8  0.1 0.2 0.8  0 0.2 0.8  0 0.3 0.8  0.2 0.3 0.8  0.2 0.2 0.8  0.3 0.3 0.8  0.3 0.2 0.8  0.4 0.3 0.8  0.4 0.2 0.8  0.5 0.3 0.8  0.5 0.2 0.8  0.6 0.3 0.8  0.6 0.2 0.8  0.7 0.3 0.8  0.7 0.2 0.8  0.8 0.3 0.8  0.8 0.2 0.8  0.9 0.3 0.8  0.9 0.2 0.8  1 0.3 0.8  1 0.2 0.8  0.1 0.4 0.8  0 0.4 0.8  0.2 0.4 0.8  0.3 0.4 0.8  0.4 0.4 0.8  0.5 0.4 0.8  0.6 0.4 0.8  0.7 0.4 0.8  0.8 0.4 0.8  0.9 0.4 0.8  1 0.4 0.8  0.1 0.5 0.8  0 0.5 0.8  0.2 0.5 0.8  0.3 0.5 0.8  0.4 0.5 0.8  0.5 0.5 0.8  0.6 0.5 0.8  0.7 0.5 0.8  0.8 0.5 0.8  0.9 0.5 0.8  1 0.5 0.8  0.1 0.6 0.8  0 0.6 0.8  0.2 0.6 0.8  0.3 0.6 0.8  0.4 0.6 0.8  0.5 0.6 0.8  0.6 0.6 0.8  0.7 0.6 0.8  0.8 0.6 0.8  0.9 0.6 0.8  1 0.6 0.8  0.1 0.7 0.8  0 0.7 0.8  0.2 0.7 0.8  0.3 0.7 0.8  0.4 0.7 0.8  0.5 0.7 0.8  0.6 0.7 0.8  0.7 0.7 0.8  0.8 0.7 0.8  0.9 0.7 0.8  1 0.7 0.8  0.1 0.8 0.8  0 0.8 0.8  0.2 0.8 0.8  0.3 0.8 0.8  0.4 0.8 0.8  0.5 0.8 0.8  0.6 0.8 0.8  0.7 0.8 0.8  0.8 0.8 0.8  0.9 0.8 0.8  1 0.8 0.8  </DataArray>
</Points>
<Cells>
[...]
<PointData  Vectors="f_23"> 
<DataArray  type="Float64"  Name="f_23"  NumberOfComponents="3" format="ascii">7.9779428690561493e-04 2.1643113509761252e-04 4.4916696977208024e-06  7.1516646057123614e-04 3.1159962036002802e-04 -6.2187148452635236e-06  8.0208227458293633e-04 2.2447878314160139e-04 6.0856545705307366e-06  7.9665687988785691e-02 3.3383437416571287e-04 5.6559857929674735e-04  7.0663744317027671e-04 2.9776040468443949e-04 -1.5765073335717903e-06  7.8114964263335676e-04 2.0314813638287041e-04 1.0322368190699877e-05  8.7846330745174213e-04 1.4812924420651882e-04 9.3011345789855894e-06  7.8634672106135881e-02 1.4202459802051361e-03 1.4174299613484577e-03  6.0120529560380072e-04 4.7464623658435156e-04 -3.7345135761677144e-05  6.8937202402980912e-04 3.6356686098431982e-04 -8.3143741587652638e-06  7.8832715905336304e-02 7.9029133391761238e-05 3.0558369381549172e-04  5.9208090273580596e-04 4.8498110520627078e-04 -3.3010032834154291e-05  4.5152065907522231e-04 6.0744410230166124e-04 -9.3775317408458826e-05  5.3788730871989049e-04 4.7641776998947792e-04 -3.8947276071802583e-05  7.8724605243941370e-02 -1.0099482822680669e-04 4.0142373229992793e-04  4.3406192776937539e-04 6.6756092727174397e-04 -1.0220370077481107e-04  2.7719689712132076e-04 6.8461745592053288e-04 -1.6142597598463459e-04  3.4894925123232632e-04 5.4841124553715837e-04 -8.1353179028240710e-05  7.8442735795476379e-02 -2.9860597005476803e-04 6.1198580326243042e-04  2.6437734242663614e-04 8.1540207767733246e-04 -2.0506363673829708e-04  6.4269330972083037e-05 6.7269704801649734e-04 -2.0301636901116555e-04  1.1123189369542320e-04 5.5650327333519104e-04 -1.1263034052596277e-04  7.7957676824693498e-02 -5.3909736423093913e-04 9.0211216379845771e-04  9.0913737152383326e-05 8.7990591726802613e-04 -3.0485905507688846e-04  -2.3216694538143851e-04 5.5604406048631160e-04 -1.7542222638481793e-04  -2.0555254149122869e-04 4.8454200801952832e-04 -1.0286703476576633e-04  7.7302541202644751e-02 -7.4903268725864079e-04 1.1806950240542313e-03  -1.2452965933727641e-04 8.0438516744166569e-04 -3.2896432863790227e-04  -6.4915123338273658e-04 3.6885800163278956e-04 -8.4319298353347823e-05  -6.2735360880835928e-04 3.4600151265274759e-04 -4.8842374618846128e-05  7.6829960386700938e-02 -8.6952120086247319e-04 1.2167869355829274e-03  -4.6348837798530453e-04 5.8464683838622565e-04 -2.2655223337688605e-04  -1.1021593544274675e-03 1.8350632759697507e-04 -1.0979200643785125e-05  -1.0946891821209041e-03 1.9179277506605182e-04 -1.4201160551056865e-06  7.7673001740786424e-02 -8.6870576828110236e-04 4.9639309537802202e-04  -9.3019517389048608e-04 3.0743072840031942e-04 -8.9175740946217575e-05  -1.3933246539748611e-03 6.1752244731068284e-05 -2.1900171400866780e-05  -1.4198732501492471e-03 7.1129424772117819e-05 3.1623606778343609e-06  8.1136350739640484e-02 -6.3787553553930072e-04 -8.1716370170577485e-04  -1.3155927181744049e-03 1.2279626448291343e-04 -5.9758729193216828e-05  -1.5446845087765057e-03 7.7652377849480594e-05 6.7722794682238293e-06  -1.5590118711390271e-03 5.8896338760019148e-05 1.9687884348722486e-05  8.4170956069171868e-02 2.5477748132495714e-04 1.6067237849551521e-03  -1.5119683713978504e-03 9.7506776936190281e-05 -3.4074225260624680e-05  9.2585617165486672e-04 1.4220102283005136e-04 1.6740343009840460e-05  1.1656548558847747e-01 -2.6014909849473200e-04 4.3015068643094254e-04  1.0002544962413049e-03 9.4691295630035729e-05 1.5045968065138545e-05  1.1539111410050799e-01 1.4053847771773058e-03 1.4460913805471771e-03  7.9399828945658801e-04 2.3664727090086477e-04 1.9255217748814644e-05  1.1583909360788554e-01 -2.7983875202770197e-04 2.4151002736688817e-04  6.1583070310652942e-04 3.1656240663651498e-04 1.2422898462312062e-05  1.1553833730942056e-01 -3.3664971865604229e-04 2.3026073580652065e-04  3.8450775352817678e-04 3.6678568697943450e-04 -4.2958688012053071e-07  1.1529942899144496e-01 -4.7151722693768085e-04 2.5005141588256514e-04  8.9893273461545117e-05 3.7295895031323891e-04 -8.2208761482910107e-06  1.1500237017958884e-01 -6.1499896934023249e-04 2.4769556694585965e-04  -2.8284965765916270e-04 3.2668783700391093e-04 2.2530450068386844e-06  1.1472538297210004e-01 -6.5391154366423046e-04 1.3974670810937382e-04  -7.3702343557506273e-04 2.3751005258456129e-04 2.8420988638988609e-05  1.1476273460628575e-01 -4.8761643447652221e-04 -1.9165993595281913e-04  -1.2051200726426268e-03 1.3781734538888119e-04 3.8357983076904277e-05  1.1572249093926547e-01 -1.2888515463950053e-04 -8.3136854677599663e-04  -1.5184272504995574e-03 5.9790036791555745e-05 2.2801701790125586e-05  1.1827152523985417e-01 2.8978832482512971e-04 -1.2244326986046313e-03  -1.6480011421600668e-03 4.5161498869595675e-05 4.5654457491047426e-05  1.2117399031320106e-01 1.9618924441365768e-04 1.7332699109748387e-03  1.0064638338348074e-03 8.8143676138178066e-05 2.2361242076066954e-05  1.2652774370418979e-01 -1.1777152181156331e-04 3.4165191894784371e-04  1.0788772891610686e-03 5.6880317211151224e-05 1.7141742682239950e-05  1.2555037679169700e-01 9.5561414461306450e-04 1.3761123486329952e-03  8.6617503124415240e-04 1.5027922816589456e-04 3.1616215626813141e-05  1.2590815760070895e-01 -2.7517279174400224e-04 1.5783214975699476e-04  6.6785433306042012e-04 2.0341442828781378e-04 3.6602618057312496e-05  1.2559171972517200e-01 -2.7735670309354463e-04 1.2014832677993298e-04  4.0386307050433281e-04 2.3498205964132701e-04 3.8826121674354657e-05  1.2530303540257157e-01 -3.0700235922697191e-04 9.2481343614016958e-05  6.8448061645088793e-05 2.3393290747686013e-04 4.3645936310036224e-05  1.2502876317758846e-01 -3.2870768975235470e-04 2.8894869359074555e-05  -3.4137028850692421e-04 1.9604669251997088e-04 5.5777064904989327e-05  1.2490809696217954e-01 -2.6483594109611840e-04 -1.3849807965144424e-04  -8.1313927048421949e-04 1.3214650727906807e-04 6.9227357194038392e-05  1.2522799049511479e-01 -4.5421562992930674e-05 -4.9005161363721182e-04  -1.2743630888897598e-03 7.0298856650978801e-05 6.0298766039300045e-05  1.2634491275704035e-01 3.0195137173292673e-04 -9.9968878023874025e-04  -1.5779063861752558e-03 3.0887135546647072e-05 3.4135944130971243e-05  1.2845896020945652e-01 5.9583546522403526e-04 -1.0293180623303258e-03  -1.7016666485470300e-03 2.5324420219611651e-05 5.3905712420269099e-05  1.3112603702726705e-01 2.4287266564243626e-04 1.4809392624931038e-03  1.0595206200614590e-03 5.2003140514497238e-05 2.3742328415839873e-05  1.1629124420177146e-01 -8.4191434682186751e-05 2.7945923251062980e-04  1.1272542099763794e-03 2.7024148398079660e-05 1.7970776691405329e-05  1.1542240021136999e-01 5.4873300209099386e-04 1.2785494906768875e-03  9.1785284877014166e-04 9.4537961441193470e-05 3.3745334197351680e-05  1.1577336051178828e-01 -1.7412852515574290e-04 1.1387819151518781e-04  7.0794868861129095e-04 1.3432229621427794e-04 4.0847167358201872e-05  1.1550580578284476e-01 -1.3419767003806780e-04 6.9014211399704627e-05  4.2068070032970020e-04 1.6012390409391833e-04 4.7217508027775926e-05  1.1523930336996366e-01 -8.4485804270701892e-05 3.4505697616211030e-05  5.4984677972244183e-05 1.6196856922872930e-04 5.5190661648681548e-05  1.1500131368725329e-01 -1.8636755167362463e-05 -3.0331579586745437e-05  -3.8243184261783350e-04 1.3593517802716859e-04 6.5428349059418900e-05  1.1495694002783813e-01 9.1698605838055750e-05 -1.7884398943879994e-04  -8.6565243681846569e-04 8.9938183924078270e-05 7.2101174138939860e-05  1.1536426065612906e-01 2.5935815073697331e-04 -4.6762927517279449e-04  -1.3155205740059102e-03 4.6540430721674539e-05 5.7777013876758892e-05  1.1645358373703940e-01 4.2965637174531676e-04 -8.2812622535720793e-04  -1.6057549724115034e-03 1.4227072255004605e-05 3.3295599099439741e-05  1.1821794190523049e-01 4.2091584561816415e-04 -7.1491032919785064e-04  -1.7229840312628923e-03 1.8867376510148885e-05 4.7008214791625473e-05  1.2023786061468479e-01 1.2390352872103895e-04 1.2431692914434498e-03  1.1001683444792686e-03 2.4899053101052343e-05 2.3685990715429156e-05  8.0187886244848183e-02 -8.5179146866021181e-05 2.2600464989346175e-04  1.1569212949461010e-03 1.0719189083404553e-05 1.8866700091229582e-05  8.0117505126381480e-02 3.8742777232384092e-04 1.0540578992646742e-03  9.6803257438167652e-04 5.7116634796520599e-05 3.1108479523338627e-05  7.9771630250384529e-02 -3.7216111702235864e-05 8.6212386865811867e-05  7.5978248131419724e-04 9.5359020672932055e-05 3.3213060979942824e-05  7.9613483200179552e-02 8.9730881281892931e-05 4.2485842817370349e-05  4.6262572346718968e-04 1.2853584706049007e-04 3.5996012276451623e-05  7.9472279268341606e-02 2.1451266520374813e-04 1.5132593537630804e-05  7.8899081790338870e-05 1.4486992074042035e-04 4.0864448579530299e-05  7.9343182330121234e-02 3.5161607710684707e-04 -4.4610229829363380e-05  -3.7988709372841894e-04 1.3875334629675774e-04 4.6336566082987070e-05  7.9344439059302371e-02 4.9371471480105615e-04 -1.7253726068664895e-04  -8.8210821259156549e-04 1.1279217430930394e-04 4.8481840360226216e-05  7.9647039219311724e-02 6.1195393246277761e-04 -3.8911971250245292e-04  -1.3444185766077201e-03 7.7545679792624051e-05 3.8599183195356482e-05  8.0422101960746201e-02 6.5124865061107543e-04 -6.1314746714367593e-04  -1.6257403265867731e-03 3.9300042869722617e-05 2.4117301473918756e-05  8.1882429643323276e-02 5.4098865921845137e-04 -4.6988334890216355e-04  -1.7318471040294627e-03 3.3427274966538440e-05 2.8912921166191425e-05  8.2707878650961880e-02 -4.3033593121425170e-05 1.1118470157954388e-03  1.1393657599000303e-03 1.5788617622478556e-05 2.1825936844860059e-05  1.1549034258440726e-03 1.3052447793735065e-05 1.6472497444271431e-05  1.1728692639949674e-03 6.7229868637536697e-06 1.4580328283156260e-05  1.1814111841587191e-03 6.5912752506572735e-06 1.2870770256516134e-05  1.0389179088689815e-03 4.7118571123502148e-05 2.8591647229381616e-05  1.0740965097542500e-03 3.4120610401413217e-05 2.6799507761991902e-05  8.6295662759265971e-04 8.1730707708029703e-05 3.6676836598358324e-05  9.2757673068972590e-04 7.1866873668293275e-05 3.0403995519007870e-05  6.0346705712614724e-04 1.1600078197532049e-04 3.7692605840783815e-05  7.0160747191633764e-04 1.1094117899409172e-04 3.1948057080652460e-05  2.5458209596336919e-04 1.3868286669573132e-04 3.7724675054929551e-05  3.8966787803864576e-04 1.3917825948241741e-04 3.5038145325020185e-05  -1.7971706996033334e-04 1.4196841995110595e-04 3.8722932517279181e-05  -6.2982466081740489e-06 1.4753346043541615e-04 4.0138006168140178e-05  -6.8051599396461550e-04 1.2382400598168373e-04 4.0954444531306609e-05  -4.7689457875820212e-04 1.3432969181724957e-04 4.5811658809247965e-05  -1.1895816385598845e-03 8.5460236346307202e-05 4.1393178938350412e-05  -9.8735778116963518e-04 1.0514769020239536e-04 4.6884046364320973e-05  -1.5767143466639659e-03 5.0492653543587666e-05 2.4074318859052860e-05  -1.4219244833868878e-03 6.4281284223554797e-05 3.3832073638782826e-05  -1.7235039112557433e-03 4.1060630468774474e-05 1.0160119426264921e-05  -1.6161941311718087e-03 4.3567735388844287e-05 2.2163584077795631e-05  1.1675899704610526e-01 2.5643150365088830e-04 2.0785361817623164e-04  7.0240728801065347e-04 2.9455003721262928e-04 1.9475233123486179e-05  7.9026520658704918e-04 1.9372454005527799e-04 2.6904203996872707e-05  1.1578835890592519e-01 1.4228884790217266e-03 1.1488152695073501e-03  1.1598279539901453e-01 7.1427882967200839e-05 1.6564961844721976e-04  5.5382410588200777e-04 5.0732596782427405e-04 8.6034469658237398e-07  1.1600518868615788e-01 -1.1262426852351146e-04 3.6566225659532051e-04  3.4778615236464927e-04 7.5200764467990989e-04 -6.7990967678979554e-05  1.1591479356473337e-01 -3.3617330001609193e-04 7.1020430914307028e-04  1.2960292823676603e-04 1.0161261799795048e-03 -2.0625283990020063e-04  1.1558193459674775e-01 -6.7339965618483486e-04 1.1991766458595583e-03  -5.0906320754936680e-05 1.2443972882234956e-03 -4.0203879260819556e-04  1.1482658267381693e-01 -1.0583102551104653e-03 1.6944273524628689e-03  -1.8111700193182976e-04 1.3129935218600735e-03 -5.6275198944604214e-04  1.1354506878252574e-01 -1.2040074073519397e-03 1.8236612922526657e-03  -3.6044790505724439e-04 1.0923440775674345e-03 -5.1465707091653779e-04  1.1333439468676335e-01 -1.2026727167679632e-03 1.0362725266383518e-03  -7.2055801853770386e-04 6.2415185725553152e-04 -2.5799161646655614e-04  1.1823893917135371e-01 -1.2382681717295694e-03 -1.1083419685056438e-03  -1.1310264754628174e-03 2.5170155446784019e-04 -1.7990347748432343e-04  1.2377005681458739e-01 1.0343943424901251e-05 2.5028465548271126e-03  -1.3993081863539699e-03 1.8145697109932832e-04 -1.8945244066658759e-04  1.7469760342020771e-01 -3.7967428405175129e-04 1.6744983463664852e-04  1.7404123041506084e-01 1.4786784715887823e-03 1.2189754339486513e-03  1.7405838424275352e-01 -3.2070604899491390e-04 1.7289302610816636e-04  1.7372459095678666e-01 -4.2132652397742490e-04 3.0614437335958224e-04  1.7356931765832337e-01 -6.7349943004779656e-04 4.5453884233539853e-04  1.7337408189923700e-01 -1.0187099709652492e-03 5.6867893551536470e-04  1.7306534956783945e-01 -1.2867826823995338e-03 4.7706304980575258e-04  1.7277509625015236e-01 -1.1374161332618515e-03 -9.0984667120378343e-05  1.7335414473969854e-01 -4.0119519536422634e-04 -1.2887258360534180e-03  1.7659355372300281e-01 4.5760649345277370e-04 -2.0817429560710350e-03  1.8193358259602968e-01 -2.1944122801221760e-04 2.8546404011041927e-03  1.9150317876762266e-01 -1.8299074968869489e-04 1.1754853400145312e-04  1.9110073883774115e-01 1.0032688887381971e-03 1.2105534461593801e-03  1.9101384981437730e-01 -3.3614972309495674e-04 1.3727889422741695e-04  1.9066034780365898e-01 -3.5253445330795936e-04 2.3303077139995784e-04  1.9042261321748374e-01 -4.4185320755119804e-04 3.1364692715286896e-04  1.9019933784457263e-01 -5.6739648234268875e-04 3.4580214385425677e-04  1.9002741756151942e-01 -6.0909699902915524e-04 2.0516821509864797e-04  1.9017121607428944e-01 -3.7277427737791754e-04 -3.0588744169792825e-04  1.9125577383256079e-01 2.4922700376488855e-04 -1.2842225681561851e-03  1.9394468778549082e-01 9.5426285895108484e-04 -1.6104297304459858e-03  1.9847737258227077e-01 2.4820702371251820e-05 2.4593818412452810e-03  1.7441885302264215e-01 -1.2759358110286235e-04 8.7605994006477008e-05  1.7415723919836590e-01 5.5183125050624836e-04 1.1594709234110040e-03  1.7403502422422334e-01 -2.2917022890435912e-04 1.0454023473696223e-04  1.7374301197447867e-01 -1.8818555727871027e-04 1.7967301131563098e-04  1.7352286185917754e-01 -1.5466930894573579e-04 2.3370856641805206e-04  1.7332739652313470e-01 -1.2441567511234573e-04 2.5030420326431431e-04  1.7324399083571018e-01 -4.2546516338341131e-05 1.4448895609251610e-04  1.7356639870704491e-01 1.6437030911639779e-04 -2.2227034423520360e-04  1.7474807326247255e-01 5.0327315291469256e-04 -9.3021188455473297e-04  1.7692418824804815e-01 7.0737333991265105e-04 -9.7840083523410555e-04  1.7992250024871492e-01 -1.1927144706026926e-04 2.1231837832162829e-03  1.1651513966632626e-01 -1.0576079600378038e-04 4.3094757984530689e-05  1.1705227912128362e-01 3.7660569815994860e-04 1.0154813227588170e-03  1.1622603638895491e-01 -6.5016484073954453e-05 5.2567335335663046e-05  1.1606304388798622e-01 6.3891084104340763e-05 1.1094622836774901e-04  1.1597011535820366e-01 2.0107703009129970e-04 1.4407960143564106e-04  1.1589882681089410e-01 3.4162083350740383e-04 1.4208684074463952e-04  1.1589620061487078e-01 4.9430637585894035e-04 4.9871198449874329e-05  1.1616563831298883e-01 6.5484234902251617e-04 -2.2193784455589396e-04  1.1704580896995403e-01 7.6624255863146768e-04 -6.6263362210288888e-04  1.1875653237000453e-01 6.8352208822627437e-04 -4.8376976475235671e-04  1.1974363650533978e-01 -2.2999479210950458e-04 1.9584176718838399e-03  1.1706328152359770e-03 1.3271892297146911e-05 8.0731882173576715e-06  1.1964163277341890e-03 8.5182577822710190e-06 1.0291670012236266e-05  1.0882069820436330e-03 3.3570998922361778e-05 2.0644931567998530e-05  9.3898679567573011e-04 6.8670456435893020e-05 3.0035770739288950e-05  7.1807607412546228e-04 1.0348300274138913e-04 3.7917470940703409e-05  4.1479566969274546e-04 1.2936828163314282e-04 4.8171874968553221e-05  2.7297603388808258e-05 1.3666076251936670e-04 6.3342604249835109e-05  -4.4101729548271646e-04 1.2169763471442014e-04 8.1102964004473697e-05  -9.6536899459613915e-04 9.0813848262947554e-05 8.8676824305674245e-05  -1.4275559296070702e-03 5.1268590984401849e-05 6.8616514619014281e-05  -1.6296070234951396e-03 2.8572514764907556e-05 5.6358268065607802e-05  1.2686839265363101e-01 2.4318823276633656e-04 8.3005006560262542e-05  7.1953956356302399e-04 2.6873946580336251e-04 5.0330189411888769e-05  8.1933071157930303e-04 1.7005576317484863e-04 4.3708085479238734e-05  1.2592987316987006e-01 1.4484096315960239e-03 9.3105256856002429e-04  1.2616483901262787e-01 2.8928077382019112e-05 -9.8954510570724715e-06  5.3869218615257514e-04 4.8269795145895668e-04 6.8125987850245075e-05  1.2632167550105555e-01 -1.5004893175685498e-04 9.8545847770295695e-05  2.7360837277169204e-04 7.6699162481328072e-04 4.1001537236571903e-05  1.2635847882549628e-01 -3.8640814028941347e-04 3.4857172567626289e-04  -3.6407359882433782e-05 1.1506688003497978e-03 -7.6589242934510543e-05  1.2616441113609242e-01 -8.3708695411837265e-04 8.1750408179585615e-04  -3.0770710565056279e-04 1.6274617038079954e-03 -3.3705908930011235e-04  1.2551199811924030e-01 -1.6378342700485034e-03 1.4641578675644788e-03  -4.3309444485855876e-04 2.0620709493970055e-03 -7.2477270884762713e-04  1.2382062153497475e-01 -2.4262540201049933e-03 1.8898568910744348e-03  -4.1931944430122545e-04 2.1254052752528651e-03 -9.8698788376008480e-04  1.2149951671920316e-01 -1.5741532879457107e-03 1.3947386346181538e-03  -4.2816143594696314e-04 1.4977930823982003e-03 -6.0653271062009663e-04  1.2746463662150262e-01 -1.5261030319745155e-03 -1.6015805590281152e-04  -6.4591900511252337e-04 6.6027034814083584e-04 -3.5156966454680878e-04  1.4087559551423551e-01 -1.8539733445556595e-03 4.3477282521914296e-03  -8.4604790020519907e-04 4.5576713681259678e-04 -7.5195423979000696e-04  1.9163542450293458e-01 -3.9025608128427078e-04 1.3321716858663088e-04  1.9101557444626241e-01 1.4960546449312997e-03 9.8110038899854837e-04  1.9105319082312844e-01 -3.3221856057499491e-04 7.1755674410862056e-05  1.9076745559221600e-01 -4.5135057560083538e-04 1.7815194296455977e-04  1.9060966113139813e-01 -7.7667890262134935e-04 3.3613424065778019e-04  1.9037798352145413e-01 -1.3389717793170211e-03 4.9487318560366346e-04  1.8998300951621844e-01 -2.0696905564010263e-03 4.5714599140747483e-04  1.8939654218504218e-01 -2.3472757317324561e-03 -1.9303095267461507e-04  1.8946621571426830e-01 -9.6440676667324779e-04 -1.7425385032388196e-03  1.9349902021281426e-01 1.4598274650485612e-03 -3.5037217658675976e-03  2.0316843478141836e-01 -8.5913793695546617e-04 4.3390812150070164e-03  2.1078470625854015e-01 -2.0263113441016078e-04 1.1661732810084132e-04  2.1042774061715214e-01 1.0051505963932321e-03 9.9149119508609891e-04  2.1036399979294279e-01 -3.4897372458708096e-04 6.2332967274924896e-05  2.1004704391745707e-01 -3.7871642334797736e-04 1.3659102152844012e-04  2.0980717415618269e-01 -5.1528604355240669e-04 2.1992258757941915e-04  2.0953654853305653e-01 -7.4797475819687604e-04 2.6372923481621252e-04  2.0921056790560483e-01 -9.5228085426088697e-04 1.4403163499023379e-04  2.0902283190803231e-01 -7.6300340957307982e-04 -3.4614435229408003e-04  2.1003775718745646e-01 3.0014485685307977e-04 -1.3659684679911660e-03  2.1379310644068975e-01 1.8185184127670984e-03 -2.6395711976520604e-03  2.2112043815391746e-01 -2.1236267312973951e-04 3.4281410786852116e-03  1.9136934803593000e-01 -1.4497351121773268e-04 9.8518283892448443e-05  1.9116283420899355e-01 5.3646850528798258e-04 9.7158830319644962e-04  1.9105684749077434e-01 -2.3965576193035764e-04 4.1369292220426286e-05  1.9080583962102785e-01 -1.9632617240016617e-04 9.8623175099483965e-05  1.9058983233041452e-01 -1.7851672914285374e-04 1.5247050864123445e-04  1.9036342860876704e-01 -1.7727575451982879e-04 1.7365118