<?xml version="1.0"?>
<VTKFile type="UnstructuredGrid"  version="0.1"  >
<UnstructuredGrid>
<Piece  NumberOfPoints="539" NumberOfCells="2160">
<Points>
<DataArray  type="Float64"  NumberOfComponents="3"  format="ascii">0 0.2 0.2  0.1 0.2 0.2  0.1 0.3 0.2  0.1 0.3 0.3  0.1 0.2 0.3  0 0.2 0.3  0 0.3 0.2  0 0.3 0.3  0.2 0.2 0.2  0.2 0.3 0.2  0.2 0.3 0.3  0.2 0.2 0.3  0.3 0.2 0.2  0.3 0.3 0.2  0.3 0.3 0.3  0.3 0.2 0.3  0.4 0.2 0.2  0.4 0.3 0.2  0.4 0.3 0.3  0.4 0.2 0.3  0.5 0.2 0.2  0.5 0.3 0.2  0.5 0.3 0.3  0.5 0.2 0.3  0.6 0.2 0.2  0.6 0.3 0.2  0.6 0.3 0.3  0.6 0.2 0.3  0.7 0.2 0.2  0.7 0.3 0.2  0.7 0.3 0.3  0.7 0.2 0.3  0.8 0.2 0.2  0.8 0.3 0.2  0.8 0.3 0.3  0.8 0.2 0.3  0.9 0.2 0.2  0.9 0.3 0.2  0.9 0.3 0.3  0.9 0.2 0.3  1 0.2 0.2  1 0.3 0.2  1 0.3 0.3  1 0.2 0.3  0.1 0.4 0.2  0.1 0.4 0.3  0 0.4 0.2  0 0.4 0.3  0.2 0.4 0.2  0.2 0.4 0.3  0.3 0.4 0.2  0.3 0.4 0.3  0.4 0.4 0.2  0.4 0.4 0.3  0.5 0.4 0.2  0.5 0.4 0.3  0.6 0.4 0.2  0.6 0.4 0.3  0.7 0.4 0.2  0.7 0.4 0.3  0.8 0.4 0.2  0.8 0.4 0.3  0.9 0.4 0.2  0.9 0.4 0.3  1 0.4 0.2  1 0.4 0.3  0.1 0.5 0.2  0.1 0.5 0.3  0 0.5 0.2  0 0.5 0.3  0.2 0.5 0.2  0.2 0.5 0.3  0.3 0.5 0.2  0.3 0.5 0.3  0.4 0.5 0.2  0.4 0.5 0.3  0.5 0.5 0.2  0.5 0.5 0.3  0.6 0.5 0.2  0.6 0.5 0.3  0.7 0.5 0.2  0.7 0.5 0.3  0.8 0.5 0.2  0.8 0.5 0.3  0.9 0.5 0.2  0.9 0.5 0.3  1 0.5 0.2  1 0.5 0.3  0.1 0.6 0.2  0.1 0.6 0.3  0 0.6 0.2  0 0.6 0.3  0.2 0.6 0.2  0.2 0.6 0.3  0.3 0.6 0.2  0.3 0.6 0.3  0.4 0.6 0.2  0.4 0.6 0.3  0.5 0.6 0.2  0.5 0.6 0.3  0.6 0.6 0.2  0.6 0.6 0.3  0.7 0.6 0.2  0.7 0.6 0.3  0.8 0.6 0.2  0.8 0.6 0.3  0.9 0.6 0.2  0.9 0.6 0.3  1 0.6 0.2  1 0.6 0.3  0.1 0.7 0.2  0.1 0.7 0.3  0 0.7 0.2  0 0.7 0.3  0.2 0.7 0.2  0.2 0.7 0.3  0.3 0.7 0.2  0.3 0.7 0.3  0.4 0.7 0.2  0.4 0.7 0.3  0.5 0.7 0.2  0.5 0.7 0.3  0.6 0.7 0.2  0.6 0.7 0.3  0.7 0.7 0.2  0.7 0.7 0.3  0.8 0.7 0.2  0.8 0.7 0.3  0.9 0.7 0.2  0.9 0.7 0.3  1 0.7 0.2  1 0.7 0.3  0.1 0.8 0.2  0.1 0.8 0.3  0 0.8 0.2  0 0.8 0.3  0.2 0.8 0.2  0.2 0.8 0.3  0.3 0.8 0.2  0.3 0.8 0.3  0.4 0.8 0.2  0.4 0.8 0.3  0.5 0.8 0.2  0.5 0.8 0.3  0.6 0.8 0.2  0.6 0.8 0.3  0.7 0.8 0.2  0.7 0.8 0.3  0.8 0.8 0.2  0.8 0.8 0.3  0.9 0.8 0.2  0.9 0.8 0.3  1 0.8 0.2  1 0.8 0.3  0.1 0.3 0.4  0.1 0.2 0.4  0 0.2 0.4  0 0.3 0.4  0.2 0.3 0.4  0.2 0.2 0.4  0.3 0.3 0.4  0.3 0.2 0.4  0.4 0.3 0.4  0.4 0.2 0.4  0.5 0.3 0.4  0.5 0.2 0.4  0.6 0.3 0.4  0.6 0.2 0.4  0.7 0.3 0.4  0.7 0.2 0.4  0.8 0.3 0.4  0.8 0.2 0.4  0.9 0.3 0.4  0.9 0.2 0.4  1 0.3 0.4  1 0.2 0.4  0.1 0.4 0.4  0 0.4 0.4  0.2 0.4 0.4  0.3 0.4 0.4  0.4 0.4 0.4  0.5 0.4 0.4  0.6 0.4 0.4  0.7 0.4 0.4  0.8 0.4 0.4  0.9 0.4 0.4  1 0.4 0.4  0.1 0.5 0.4  0 0.5 0.4  0.2 0.5 0.4  0.3 0.5 0.4  0.4 0.5 0.4  0.5 0.5 0.4  0.6 0.5 0.4  0.7 0.5 0.4  0.8 0.5 0.4  0.9 0.5 0.4  1 0.5 0.4  0.1 0.6 0.4  0 0.6 0.4  0.2 0.6 0.4  0.3 0.6 0.4  0.4 0.6 0.4  0.5 0.6 0.4  0.6 0.6 0.4  0.7 0.6 0.4  0.8 0.6 0.4  0.9 0.6 0.4  1 0.6 0.4  0.1 0.7 0.4  0 0.7 0.4  0.2 0.7 0.4  0.3 0.7 0.4  0.4 0.7 0.4  0.5 0.7 0.4  0.6 0.7 0.4  0.7 0.7 0.4  0.8 0.7 0.4  0.9 0.7 0.4  1 0.7 0.4  0.1 0.8 0.4  0 0.8 0.4  0.2 0.8 0.4  0.3 0.8 0.4  0.4 0.8 0.4  0.5 0.8 0.4  0.6 0.8 0.4  0.7 0.8 0.4  0.8 0.8 0.4  0.9 0.8 0.4  1 0.8 0.4  0.1 0.3 0.5  0.1 0.2 0.5  0 0.2 0.5  0 0.3 0.5  0.2 0.3 0.5  0.2 0.2 0.5  0.3 0.3 0.5  0.3 0.2 0.5  0.4 0.3 0.5  0.4 0.2 0.5  0.5 0.3 0.5  0.5 0.2 0.5  0.6 0.3 0.5  0.6 0.2 0.5  0.7 0.3 0.5  0.7 0.2 0.5  0.8 0.3 0.5  0.8 0.2 0.5  0.9 0.3 0.5  0.9 0.2 0.5  1 0.3 0.5  1 0.2 0.5  0.1 0.4 0.5  0 0.4 0.5  0.2 0.4 0.5  0.3 0.4 0.5  0.4 0.4 0.5  0.5 0.4 0.5  0.6 0.4 0.5  0.7 0.4 0.5  0.8 0.4 0.5  0.9 0.4 0.5  1 0.4 0.5  0.1 0.5 0.5  0 0.5 0.5  0.2 0.5 0.5  0.3 0.5 0.5  0.4 0.5 0.5  0.5 0.5 0.5  0.6 0.5 0.5  0.7 0.5 0.5  0.8 0.5 0.5  0.9 0.5 0.5  1 0.5 0.5  0.1 0.6 0.5  0 0.6 0.5  0.2 0.6 0.5  0.3 0.6 0.5  0.4 0.6 0.5  0.5 0.6 0.5  0.6 0.6 0.5  0.7 0.6 0.5  0.8 0.6 0.5  0.9 0.6 0.5  1 0.6 0.5  0.1 0.7 0.5  0 0.7 0.5  0.2 0.7 0.5  0.3 0.7 0.5  0.4 0.7 0.5  0.5 0.7 0.5  0.6 0.7 0.5  0.7 0.7 0.5  0.8 0.7 0.5  0.9 0.7 0.5  1 0.7 0.5  0.1 0.8 0.5  0 0.8 0.5  0.2 0.8 0.5  0.3 0.8 0.5  0.4 0.8 0.5  0.5 0.8 0.5  0.6 0.8 0.5  0.7 0.8 0.5  0.8 0.8 0.5  0.9 0.8 0.5  1 0.8 0.5  0.1 0.3 0.6  0.1 0.2 0.6  0 0.2 0.6  0 0.3 0.6  0.2 0.3 0.6  0.2 0.2 0.6  0.3 0.3 0.6  0.3 0.2 0.6  0.4 0.3 0.6  0.4 0.2 0.6  0.5 0.3 0.6  0.5 0.2 0.6  0.6 0.3 0.6  0.6 0.2 0.6  0.7 0.3 0.6  0.7 0.2 0.6  0.8 0.3 0.6  0.8 0.2 0.6  0.9 0.3 0.6  0.9 0.2 0.6  1 0.3 0.6  1 0.2 0.6  0.1 0.4 0.6  0 0.4 0.6  0.2 0.4 0.6  0.3 0.4 0.6  0.4 0.4 0.6  0.5 0.4 0.6  0.6 0.4 0.6  0.7 0.4 0.6  0.8 0.4 0.6  0.9 0.4 0.6  1 0.4 0.6  0.1 0.5 0.6  0 0.5 0.6  0.2 0.5 0.6  0.3 0.5 0.6  0.4 0.5 0.6  0.5 0.5 0.6  0.6 0.5 0.6  0.7 0.5 0.6  0.8 0.5 0.6  0.9 0.5 0.6  1 0.5 0.6  0.1 0.6 0.6  0 0.6 0.6  0.2 0.6 0.6  0.3 0.6 0.6  0.4 0.6 0.6  0.5 0.6 0.6  0.6 0.6 0.6  0.7 0.6 0.6  0.8 0.6 0.6  0.9 0.6 0.6  1 0.6 0.6  0.1 0.7 0.6  0 0.7 0.6  0.2 0.7 0.6  0.3 0.7 0.6  0.4 0.7 0.6  0.5 0.7 0.6  0.6 0.7 0.6  0.7 0.7 0.6  0.8 0.7 0.6  0.9 0.7 0.6  1 0.7 0.6  0.1 0.8 0.6  0 0.8 0.6  0.2 0.8 0.6  0.3 0.8 0.6  0.4 0.8 0.6  0.5 0.8 0.6  0.6 0.8 0.6  0.7 0.8 0.6  0.8 0.8 0.6  0.9 0.8 0.6  1 0.8 0.6  0.1 0.3 0.7  0.1 0.2 0.7  0 0.2 0.7  0 0.3 0.7  0.2 0.3 0.7  0.2 0.2 0.7  0.3 0.3 0.7  0.3 0.2 0.7  0.4 0.3 0.7  0.4 0.2 0.7  0.5 0.3 0.7  0.5 0.2 0.7  0.6 0.3 0.7  0.6 0.2 0.7  0.7 0.3 0.7  0.7 0.2 0.7  0.8 0.3 0.7  0.8 0.2 0.7  0.9 0.3 0.7  0.9 0.2 0.7  1 0.3 0.7  1 0.2 0.7  0.1 0.4 0.7  0 0.4 0.7  0.2 0.4 0.7  0.3 0.4 0.7  0.4 0.4 0.7  0.5 0.4 0.7  0.6 0.4 0.7  0.7 0.4 0.7  0.8 0.4 0.7  0.9 0.4 0.7  1 0.4 0.7  0.1 0.5 0.7  0 0.5 0.7  0.2 0.5 0.7  0.3 0.5 0.7  0.4 0.5 0.7  0.5 0.5 0.7  0.6 0.5 0.7  0.7 0.5 0.7  0.8 0.5 0.7  0.9 0.5 0.7  1 0.5 0.7  0.1 0.6 0.7  0 0.6 0.7  0.2 0.6 0.7  0.3 0.6 0.7  0.4 0.6 0.7  0.5 0.6 0.7  0.6 0.6 0.7  0.7 0.6 0.7  0.8 0.6 0.7  0.9 0.6 0.7  1 0.6 0.7  0.1 0.7 0.7  0 0.7 0.7  0.2 0.7 0.7  0.3 0.7 0.7  0.4 0.7 0.7  0.5 0.7 0.7  0.6 0.7 0.7  0.7 0.7 0.7  0.8 0.7 0.7  0.9 0.7 0.7  1 0.7 0.7  0.1 0.8 0.7  0 0.8 0.7  0.2 0.8 0.7  0.3 0.8 0.7  0.4 0.8 0.7  0.5 0.8 0.7  0.6 0.8 0.7  0.7 0.8 0.7  0.8 0.8 0.7  0.9 0.8 0.7  1 0.8 0.7  0.1 0.3 0.8  0.1 0.2 0.8  0 0.2 0.8  0 0.3 0.8  0.2 0.3 0.8  0.2 0.2 0.8  0.3 0.3 0.8  0.3 0.2 0.8  0.4 0.3 0.8  0.4 0.2 0.8  0.5 0.3 0.8  0.5 0.2 0.8  0.6 0.3 0.8  0.6 0.2 0.8  0.7 0.3 0.8  0.7 0.2 0.8  0.8 0.3 0.8  0.8 0.2 0.8  0.9 0.3 0.8  0.9 0.2 0.8  1 0.3 0.8  1 0.2 0.8  0.1 0.4 0.8  0 0.4 0.8  0.2 0.4 0.8  0.3 0.4 0.8  0.4 0.4 0.8  0.5 0.4 0.8  0.6 0.4 0.8  0.7 0.4 0.8  0.8 0.4 0.8  0.9 0.4 0.8  1 0.4 0.8  0.1 0.5 0.8  0 0.5 0.8  0.2 0.5 0.8  0.3 0.5 0.8  0.4 0.5 0.8  0.5 0.5 0.8  0.6 0.5 0.8  0.7 0.5 0.8  0.8 0.5 0.8  0.9 0.5 0.8  1 0.5 0.8  0.1 0.6 0.8  0 0.6 0.8  0.2 0.6 0.8  0.3 0.6 0.8  0.4 0.6 0.8  0.5 0.6 0.8  0.6 0.6 0.8  0.7 0.6 0.8  0.8 0.6 0.8  0.9 0.6 0.8  1 0.6 0.8  0.1 0.7 0.8  0 0.7 0.8  0.2 0.7 0.8  0.3 0.7 0.8  0.4 0.7 0.8  0.5 0.7 0.8  0.6 0.7 0.8  0.7 0.7 0.8  0.8 0.7 0.8  0.9 0.7 0.8  1 0.7 0.8  0.1 0.8 0.8  0 0.8 0.8  0.2 0.8 0.8  0.3 0.8 0.8  0.4 0.8 0.8  0.5 0.8 0.8  0.6 0.8 0.8  0.7 0.8 0.8  0.8 0.8 0.8  0.9 0.8 0.8  1 0.8 0.8  </DataArray>
</Points>
<Cells>
[...]
<PointData  Vectors="f_23"> 
<DataArray  type="Float64"  Name="f_23"  NumberOfComponents="3" format="ascii">6.8447620401671037e-04 1.4875987294488640e-04 -4.9392894040509884e-06  6.2278521753164986e-04 2.1085853305535481e-04 -1.3374299727968777e-05  6.8427813396857015e-04 1.5343034639133060e-04 -4.6739377458917422e-06  7.7506365059453672e-02 2.4445328927445145e-04 4.9573067066292862e-04  6.1708688921957762e-04 2.0142421733172010e-04 -1.1195079207882763e-05  6.6974699747777478e-04 1.3907825772351446e-04 -1.1961948493902083e-06  7.4184073156245050e-04 1.0347639754980701e-04 -1.5792343518228627e-06  7.6658219588371587e-02 8.6731182258845390e-04 1.2373561856501973e-03  5.3024435369671821e-04 3.2005372760497816e-04 -3.4548911277632620e-05  5.9366252909194258e-04 2.4701721160916594e-04 -1.6011494819656630e-05  7.6886089472428143e-02 5.2357998002668781e-05 2.5010770848551695e-04  5.2954024982398626e-04 3.2568965754987088e-04 -3.3784841825355437e-05  4.0459984300592262e-04 4.0931188056048687e-04 -6.8426120016184177e-05  4.6877219444455616e-04 3.2271515110638397e-04 -3.4266177932811734e-05  7.6812794285086985e-02 -7.0222657761909087e-05 3.2323865913609092e-04  4.0439306553342961e-04 4.4700990977116054e-04 -7.5611772525384108e-05  2.4969163040547231e-04 4.6277197463828848e-04 -1.0437089087090997e-04  3.0738045175687963e-04 3.7201737938307941e-04 -5.5684310868329448e-05  7.6595597291639297e-02 -2.0718305954101600e-04 4.9087366559926262e-04  2.6008825579939946e-04 5.4656721498114148e-04 -1.3159869259897635e-04  5.0358869589077749e-05 4.5787940808412721e-04 -1.1710030463706252e-04  9.5996656251864191e-05 3.7956344223849905e-04 -6.4097203113031500e-05  7.6225328743784071e-02 -3.8031365313238895e-04 7.1718024361820080e-04  9.4029622934126459e-05 5.9288048215039519e-04 -1.7619092884267314e-04  -2.2586998787882422e-04 3.8303306653152147e-04 -8.1240576719131532e-05  -1.8977355861693435e-04 3.3392024147561357e-04 -4.1785722954605978e-05  7.5741440955004971e-02 -5.3783077304877581e-04 9.2429992772236134e-04  -1.2653389693706213e-04 5.4697210586523472e-04 -1.6421285297713321e-04  -5.9143334555360845e-04 2.5907456061256503e-04 -1.3245406401533417e-05  -5.5974563943660409e-04 2.4258918304123975e-04 3.2568371166572563e-06  7.5414619421020040e-02 -6.2923787057502217e-04 9.1277081003601258e-04  -4.4926833629560850e-04 4.0258374745624542e-04 -7.7324442302007459e-05  -9.5246287323111855e-04 1.3167292642547035e-04 2.2002922806790489e-05  -9.4242631740200876e-04 1.3790918281593475e-04 2.5571435558382543e-05  7.6056905132680125e-02 -6.2451384181256317e-04 2.9488502670497096e-04  -8.4215746488609463e-04 2.1315969184920004e-04 -6.4711454596024306e-06  -1.1569251949079299e-03 4.4657389200387518e-05 -3.6251084288739914e-06  -1.1789480679315193e-03 5.1756597204629699e-05 1.6817876669222881e-05  7.8526631236155858e-02 -4.3072563243894829e-04 -6.2926183220722272e-04  -1.1256151844639317e-03 8.7704801245894068e-05 -1.8651045913963290e-05  -1.2604307417053773e-03 6.0877218081599051e-05 2.6554144785338500e-05  -1.2679847706401385e-03 4.4709058573233396e-05 3.1678689740575999e-05  8.0904435430114427e-02 2.3305333427961589e-04 1.3397574096119507e-03  -1.2524797018420484e-03 7.1042141466563929e-05 3.9888562819708770e-06  7.6824907722698342e-04 9.8486938066900273e-05 2.4840548820945722e-06  1.1588189034423352e-01 -1.6690145219020093e-04 4.2244697708808605e-04  8.2598680192023368e-04 6.7058032901025377e-05 2.6124651610180178e-06  1.1487853269073502e-01 8.6035430796704067e-04 1.3121316657309576e-03  6.6327037357113885e-04 1.6214173827286895e-04 2.0854468462194127e-06  1.1532765733183541e-01 -1.9358160385148004e-04 2.0700619308515014e-04  5.2129429620482819e-04 2.1527064453031553e-04 -1.3457156826007338e-06  1.1512900108186312e-01 -2.3786430670557198e-04 2.1563073550713054e-04  3.3247240049376049e-04 2.4864108911187388e-04 -4.1875341932563223e-06  1.1494032804080143e-01 -3.3333927747572001e-04 2.5977202481837752e-04  8.4040682038742068e-05 2.5275902485028440e-04 2.0680506853730069e-06  1.1469626577138545e-01 -4.4317337299272849e-04 2.8685062983142986e-04  -2.3867900846197520e-04 2.2231807005797870e-04 2.4310239916587772e-05  1.1447984577089429e-01 -4.8809985691309666e-04 2.2161998207242237e-04  -6.3165185507756767e-04 1.6398239717475328e-04 5.1349356764353221e-05  1.1453953449481531e-01 -3.8536783459998256e-04 -5.7702779869166144e-05  -1.0180426721986492e-03 9.8094695115692491e-05 5.0412946045066502e-05  1.1533110103916010e-01 -1.2792284901609507e-04 -6.3027406069514282e-04  -1.2495557241599896e-03 4.2933383990331743e-05 2.9371433048416886e-05  1.1724311095365876e-01 1.8955147484591990e-04 -9.1247445009871517e-04  -1.3330753226805441e-03 3.3008693203564781e-05 4.9470662917489063e-05  1.1953473220410014e-01 6.6864306276932529e-05 1.4052526831384244e-03  8.2277087580403597e-04 6.0202586917488403e-05 6.8798745338130947e-06  1.2588176849237107e-01 -7.9260885814116743e-05 3.5436834090110084e-04  8.8042778924722707e-04 3.9405361951744909e-05 4.7770507967128725e-06  1.2499372758840323e-01 6.0726099850427285e-04 1.2586013778290498e-03  7.1067244087225263e-04 1.0158409135286595e-04 1.0690778189427048e-05  1.2539466832457324e-01 -1.9370464223318037e-04 1.4631450203746039e-04  5.5513060340098047e-04 1.3599945154271482e-04 1.4659307012299596e-05  1.2517981182277405e-01 -2.0064782206931717e-04 1.4014076140932439e-04  3.4447972329647899e-04 1.5544076686635055e-04 2.1258013353909611e-05  1.2495877010294723e-01 -2.2516116941811371e-04 1.5046941700190515e-04  6.9227388003574006e-05 1.5256379690486971e-04 3.5125460383212171e-05  1.2473373484700698e-01 -2.4821289296646920e-04 1.2987867311177665e-04  -2.7700410547933422e-04 1.2556150618838380e-04 5.7688906788804398e-05  1.2463160101641436e-01 -2.1438432850448609e-04 1.5562123066989573e-05  -6.8051576568707844e-04 8.3965731163794440e-05 7.6422505513359343e-05  1.2489909228087813e-01 -6.6417054956152460e-05 -2.8232943546192195e-04  -1.0631049643174989e-03 4.7053050567454783e-05 6.4083735632091188e-05  1.2581486320532581e-01 1.8467879080386420e-04 -7.5344898888498799e-04  -1.2911108966334468e-03 2.0911994774696719e-05 3.6388765630815513e-05  1.2743116970922150e-01 3.9366151791590516e-04 -7.5872282380401446e-04  -1.3729465185575499e-03 1.9070245201248359e-05 5.5069289202542933e-05  1.2952112652685122e-01 8.8448078760613880e-05 1.2142728891328624e-03  8.5826094271694391e-04 3.4068867375019993e-05 8.8576288330439707e-06  1.1568314554031242e-01 -6.6873269813203526e-05 3.0153659679612628e-04  9.1310367372397696e-04 1.6213427003930016e-05 6.6484533382764723e-06  1.1488659364792445e-01 3.5151466460299995e-04 1.1689037989895846e-03  7.4454600541608090e-04 6.1745362273592322e-05 1.2952980450754393e-05  1.1526806274724274e-01 -1.3464825883356221e-04 1.1763568039804366e-04  5.8075915177258758e-04 8.7260163898954943e-05 1.7930126875872722e-05  1.1508595767745783e-01 -1.0752673828075676e-04 1.0571039123896987e-04  3.5386882190066804e-04 1.0264494916474257e-04 2.6779873036439354e-05  1.1488080171466228e-01 -7.6041304660181576e-05 1.0877179519570843e-04  5.8282161109369527e-05 1.0102566209142767e-04 4.1697783366990854e-05  1.1468235122430999e-01 -3.5991631171651905e-05 8.3248427288929770e-05  -3.0460731727284876e-04 8.0886860608628616e-05 6.1327300319223541e-05  1.1463612097606334e-01 3.4850668083275001e-05 -2.2716496127506723e-05  -7.1229216749447641e-04 5.0620937817129882e-05 7.4672222347802231e-05  1.1496468276798301e-01 1.5059974460777524e-04 -2.7619430816658600e-04  -1.0857532920073782e-03 2.7751927275897379e-05 5.9876000727435948e-05  1.1584572862100810e-01 2.7751405503188890e-04 -6.2266616812234245e-04  -1.3084831904494824e-03 7.8112009530107796e-06 3.4278409959101896e-05  1.1718732495031516e-01 2.7093500704820033e-04 -5.0443461829600316e-04  -1.3896185963970962e-03 1.5685097591787282e-05 4.8365303846695161e-05  1.1878039487547025e-01 1.7139889676430308e-05 1.0764687342964421e-03  8.8638524307164956e-04 1.4055489964914890e-05 9.6374453937268805e-06  7.8186489535386580e-02 -6.3564186175411991e-05 2.4205475263864827e-04  9.3317915217652053e-04 4.7451908368145163e-06 8.8434726148227588e-06  7.8137043926609626e-02 3.5156178620384206e-04 9.4702728225268739e-04  7.7972936729738701e-04 3.5278445599150267e-05 1.1391996459975119e-05  7.7850278608662241e-02 -3.7049303020288227e-05 9.4864129840778718e-05  6.1707894966761556e-04 6.1187052900358893e-05 1.1577453700622896e-05  7.7746299569153757e-02 5.7754029642280312e-05 7.7941847615149094e-05  3.8331269264321006e-04 8.2974704497575059e-05 1.6615159543945833e-05  7.7635152905104740e-02 1.4659830699665228e-04 7.8193874984574095e-05  7.5724000577300993e-05 9.2220810827339984e-05 2.7773403931358142e-05  7.7518619758493959e-02 2.4219347131127097e-04 4.9584397186599601e-05  -3.0049058222175344e-04 8.6054719625444683e-05 4.2314196203398223e-05  7.7500814358389625e-02 3.4143328167791128e-04 -4.4775257285190810e-05  -7.1848331865656133e-04 6.8582200402942235e-05 5.1956527596770602e-05  7.7734271021415544e-02 4.2482181115459166e-04 -2.3647174276511651e-04  -1.0988403269281677e-03 4.9139161128219340e-05 4.2677537290689680e-05  7.8353502604379330e-02 4.5478289949210107e-04 -4.5197307924463152e-04  -1.3191367678250922e-03 2.7285383971055886e-05 2.5407260812797678e-05  7.9431432201058194e-02 3.9822137721071002e-04 -3.0915144258315949e-04  -1.3965293241023054e-03 2.7072205617282347e-05 3.1432390804415298e-05  7.9960465520294538e-02 -3.7941365994045578e-05 1.0029677484036453e-03  9.1934402801797206e-04 7.7885601988388609e-06 1.0367461989083139e-05  9.3139537387236851e-04 7.3084538783234202e-06 6.7140038696190760e-06  9.5158604016884029e-04 2.9096730692446588e-07 7.8390261545809617e-06  9.5551368184768276e-04 9.4509200543239991e-07 5.9978122660193350e-06  8.3514700519194394e-04 2.8975137319328742e-05 1.1002491730191376e-05  8.6635368648155481e-04 2.0000846517010008e-05 9.3999051795460837e-06  6.9695916305556453e-04 5.2531927545212819e-05 1.4070012224973183e-05  7.4979995930167824e-04 4.6283858165449405e-05 8.8421267790737514e-06  4.9393832562569034e-04 7.5763118075544960e-05 1.4033225158661112e-05  5.7340710980491284e-04 7.2806425979746493e-05 1.0316863600617749e-05  2.1652466382167162e-04 9.0133726505260532e-05 1.7002987855797787e-05  3.2748012714555955e-04 9.0744787517334043e-05 1.7722841203802901e-05  -1.3673527853898417e-04 9.0909769624470307e-05 2.4323300456597116e-05  7.9687097720478293e-06 9.4262898800305531e-05 3.1296373918591138e-05  -5.5265999021237254e-04 7.8512614977279573e-05 3.4209541834803557e-05  -3.8187769770292639e-04 8.4007274752623712e-05 4.6943606528813781e-05  -9.7580052524430625e-04 5.4263563650603322e-05 3.9896832011200738e-05  -8.1052100160694030e-04 6.6435577067895418e-05 5.3778444158079279e-05  -1.2801093914057090e-03 3.3896487702900013e-05 2.5864745628671367e-05  -1.1644315124986443e-03 4.2654900107858211e-05 3.9697831068212826e-05  -1.3883179165402478e-03 3.2575538274173266e-05 1.3964312590260548e-05  -1.3162390335338312e-03 3.4483526718756848e-05 2.7261140506891605e-05  1.1600211184622133e-01 1.8958024288741042e-04 2.1470032941011872e-04  6.0939116852612289e-04 2.0032770069637292e-04 1.4183019524298823e-06  6.6863123857375281e-04 1.3401699201806081e-04 8.7994213010681337e-06  1.1516839778269647e-01 8.6532172507504867e-04 1.0624710796776793e-03  1.1546855651920769e-01 4.8024032568449598e-05 1.4851397903483936e-04  5.0554773247118924e-04 3.4125354955347913e-04 -1.3852436132758603e-05  1.1547044682209455e-01 -7.7873696172926318e-05 3.1148272212599048e-04  3.5842097825757334e-04 5.0173585117477325e-04 -5.3659605736972689e-05  1.1538723473253823e-01 -2.3424399863920480e-04 5.8332095496265184e-04  1.9325800316845635e-04 6.7595800935158054e-04 -1.2552579581720193e-04  1.1512228834369680e-01 -4.7629554737024647e-04 9.6226566417431040e-04  3.0533895676961446e-05 8.3056581029655285e-04 -2.1817649107983204e-04  1.1456215342485265e-01 -7.6856538261257836e-04 1.3468433817096816e-03  -1.3739604939876296e-04 8.8353629222564481e-04 -2.7073459880256766e-04  1.1366852174804680e-01 -9.0605502891124711e-04 1.4117067549277492e-03  -3.7733515274505957e-04 7.4191270840665870e-04 -1.8425714780200309e-04  1.1361429960233436e-01 -9.1636932751797270e-04 6.6072015974988178e-04  -7.2704890381873827e-04 4.2504956371176373e-04 -3.0088384392738950e-05  1.1713304333990505e-01 -8.6688596919584345e-04 -9.7160251580714408e-04  -1.0516151069418444e-03 1.7397581710813957e-04 -7.3903145368866996e-05  1.2087632393043277e-01 1.0322055983687391e-04 2.2447550296858169e-03  -1.2373120220465451e-03 1.2604365605583162e-04 -6.9136796387376276e-05  1.7561995966641128e-01 -2.5001263938411562e-04 1.9011531777368923e-04  1.7512862067123583e-01 9.0768929669923966e-04 1.1603326090381325e-03  1.7515704532566437e-01 -2.2561180222438999e-04 1.5024920396879176e-04  1.7490965554751969e-01 -2.9533874041108923e-04 2.7935150779100971e-04  1.7477699917672793e-01 -4.6596841984267607e-04 4.2490102921421161e-04  1.7459963657750194e-01 -7.1206436688869194e-04 5.4399701249359606e-04  1.7434268871147360e-01 -9.2670774802401656e-04 5.0085415836543720e-04  1.7416139254756818e-01 -8.6505595629393921e-04 3.7994024166269967e-05  1.7476459968254757e-01 -3.5445599620195848e-04 -1.0455284408617401e-03  1.7731243059041357e-01 3.3038676941333372e-04 -1.7733378288029365e-03  1.8099685805714988e-01 -2.0612636336291357e-04 2.1556044229720977e-03  1.9225900297052298e-01 -1.1289501203108211e-04 1.4725829432034115e-04  1.9191469920919710e-01 6.4244181864928757e-04 1.1459939354168556e-03  1.9188537509814829e-01 -2.2751452332937815e-04 1.2143306444101638e-04  1.9161760912856282e-01 -2.4538734711587442e-04 2.2797861446049926e-04  1.9143205524097170e-01 -3.1134808487520981e-04 3.2372694529589493e-04  1.9124293031858750e-01 -4.0904721277134292e-04 3.7394423795963645e-04  1.9109056870687335e-01 -4.5750199304184593e-04 2.7509429764929836e-04  1.9122659177802331e-01 -3.1097572157337864e-04 -1.6587395666510914e-04  1.9221119561753497e-01 1.3634381828302102e-04 -1.0789353431881598e-03  1.9441380143662562e-01 6.8042079397978301e-04 -1.4225015208324495e-03  1.9753989414349132e-01 -2.6597111071176307e-05 1.8017566778153302e-03  1.7540253115117005e-01 -8.6526259991171378e-05 1.1780995374998598e-04  1.7516812674333010e-01 3.5627567467757181e-04 1.0860177624070911e-03  1.7510153221571426e-01 -1.6139261178280955e-04 9.9032580764346875e-05  1.7487879273588680e-01 -1.3424050525905019e-04 1.8874909772649122e-04  1.7470677976598772e-01 -1.1645189615939062e-04 2.6306694561369011e-04  1.7453809567221515e-01 -1.0662908637167614e-04 2.9822711697209458e-04  1.7444929060592479e-01 -6.4706170854725333e-05 2.1738844377795481e-04  1.7471318865227911e-01 6.9582657124962882e-05 -1.2152159050605092e-04  1.7574658945105698e-01 3.1907126468480823e-04 -8.1300937183927753e-04  1.7754809535033589e-01 4.9212745084955005e-04 -8.8672707121494325e-04  1.7958124897314640e-01 -1.2300876113257407e-04 1.6194569319152206e-03  1.1586132073005834e-01 -5.8959725713327915e-05 6.0990339553783512e-05  1.1638881462865175e-01 3.5741595843537065e-04 9.1692646547458984e-04  1.1562780613167238e-01 -4.4524573732524349e-05 5.2503496194397665e-05  1.1550111958210038e-01 5.0037988414439762e-05 1.2072445425676826e-04  1.1542469459773769e-01 1.4480605558137377e-04 1.7161587788819472e-04  1.1535075532834974e-01 2.3703939279559513e-04 1.8860375591209751e-04  1.1531701993394536e-01 3.3467408211244318e-04 1.1677081063484387e-04  1.1551383565976564e-01 4.3835758389132120e-04 -1.4094672483841859e-04  1.1626638851039257e-01 5.1946215236721243e-04 -5.7973513725806738e-04  1.1766048477575812e-01 5.0667862789699090e-04 -4.2985143043583598e-04  1.1805293926701541e-01 -1.1214169356408053e-04 1.5719508314470314e-03  9.3772997625781937e-04 8.4845193548800676e-06 1.4288794772740160e-06  9.6083017844007064e-04 4.1769343256235794e-06 3.6724816601577268e-06  8.7260993388192545e-04 2.1298046270051011e-05 5.7429999591236205e-06  7.5754433524531813e-04 4.5423397800687256e-05 9.9102487748168528e-06  5.8995676387952277e-04 6.8328107891818621e-05 1.7775821478403833e-05  3.5650989263743394e-04 8.4087013827896832e-05 3.4533561189144718e-05  4.8529354338164457e-05 8.5971828865082642e-05 6.2528974226279342e-05  -3.4015799931446300e-04 7.3005364065107688e-05 9.5767990144458943e-05  -7.9067007844085141e-04 5.2776283086712116e-05 1.1283247135097380e-04  -1.1807822350364270e-03 2.9723876724579901e-05 8.8456423314570878e-05  -1.3443910798300379e-03 2.0615464439303248e-05 7.2973349627224207e-05  1.2610250124466579e-01 1.7517254772487459e-04 1.2677557907679227e-04  6.1482669862522555e-04 1.8567270255199331e-04 2.1672814448250305e-05  6.8007882981460915e-04 1.2014277173244089e-04 1.9927982140426069e-05  1.2532098221563739e-01 8.8513485206103033e-04 8.3246183884265988e-04  1.2563763693483293e-01 1.4824145936823678e-05 3.0422761713475844e-05  4.9716312869728895e-04 3.2784860663808758e-04 2.9923704550273000e-05  1.2575076202315880e-01 -1.0853112809130416e-04 1.3390223199616057e-04  3.2568343155805866e-04 5.1291891438086335e-04 1.8585726646124361e-05  1.2576709048383877e-01 -2.7404064247549324e-04 3.4166592368728318e-04  1.2172475551059701e-04 7.6228962959800587e-04 -3.3273722257073964e-05  1.2558911069889950e-01 -5.8601390697566658e-04 7.0650736535771315e-04  -7.6973053459488853e-05 1.0788283111197374e-03 -1.5160383906593738e-04  1.2503370434678535e-01 -1.1603732867686573e-03 1.2174531148992280e-03  -2.3742949646604513e-04 1.3813920847458841e-03 -3.2218321927032447e-04  1.2376579191116750e-01 -1.8039194421101271e-03 1.5640710203716297e-03  -4.0199567532702872e-04 1.4454105727386554e-03 -3.8045907046728352e-04  1.2228115268429655e-01 -1.3099784808418716e-03 1.0707476991808080e-03  -5.8546794337530257e-04 1.0323887755326793e-03 -1.3466292569560478e-05  1.2666121966397381e-01 -1.1805529866199104e-03 -5.7115139482158980e-04  -8.2109259226411659e-04 4.5834748547597047e-04 -8.8300398335979576e-05  1.3523218332306783e-01 -1.1998155180816393e-03 4.0850733270037078e-03  -1.0043765380675568e-03 3.1257910899655305e-04 -3.6665986031352341e-04  1.9234799624044172e-01 -2.6924475920709874e-04 1.6621224440705183e-04  1.9190768640758249e-01 9.2388538828528733e-04 9.1746842115991592e-04  1.9194733941792080e-01 -2.4250716551784180e-04 8.1688536088149818e-05  1.9175263317822064e-01 -3.2576388688891373e-04 1.8956854826133451e-04  1.9163032474465730e-01 -5.4404884388704270e-04 3.3552403152158728e-04  1.9141683399540135e-01 -9.2866902697971818e-04 4.7924512717750707e-04  1.9102824356021766e-01 -1.4565810024645142e-03 4.8005368133090059e-04  1.9051207328168188e-01 -1.7260367525815457e-03 -1.3676984613215004e-05  1.9076899988740262e-01 -8.1001152440619568e-04 -1.3666333695230906e-03  1.9413588404136681e-01 1.0763455683636262e-03 -3.3259992484956187e-03  2.0063505132133352e-01 -6.3516632977692891e-04 3.1057338426260742e-03  2.1121734978050027e-01 -1.3443032618021668e-04 1.4680071669506185e-04  2.1092061917742391e-01 6.4080618045508680e-04 9.2755565122586224e-04  2.1091244260982964e-01 -2.4045829703324729e-04 7.2310723467502842e-05  2.1068437862139658e-01 -2.6806050812165530e-04 1.6109886584583742e-04  2.1050822746375877e-01 -3.6715486373154203e-04 2.5372825148466794e-04  2.1028057382399973e-01 -5.3840433035850285e-04 3.0523319544312037e-04  2.0996653805914883e-01 -7.0246812676967943e-04 2.1452451226295472e-04  2.0976193553170494e-01 -5.9899028982352703e-04 -2.1817937746688131e-04  2.1072855704840959e-01 1.6747598460040565e-04 -1.2135762477313355e-03  2.1403112052132667e-01 1.3776986299328131e-03 -2.7365144870852187e-03  2.1903234646287409e-01 -1.4270114882760813e-04 2.2011993913066668e-03  1.9216989487346878e-01 -1.0388972906361320e-04 1.2881940567807903e-04  1.9198789829365148e-01 3.4080164349289369e-04 9.0537239433239550e-04  1.9193655228291218e-01 -1.7058030900501397e-04 5.7367812198213627e-05  1.9175353589984326e-01 -1.4189378601028152e-04 1.3138180853611455e-04  1.9159294131060575e-01 -1.3791785031928131e-04 2.0095333121646520e-04  1.9139689320274930e-01 -1.5382249001274058e-04 2.3305277955949