<?xml version="1.0"?>
<VTKFile type="UnstructuredGrid"  version="0.1"  >
<UnstructuredGrid>
<Piece  NumberOfPoints="539" NumberOfCells="2160">
<Points>
<DataArray  type="Float64"  NumberOfComponents="3"  format="ascii">0 0.2 0.2  0.1 0.2 0.2  0.1 0.3 0.2  0.1 0.3 0.3  0.1 0.2 0.3  0 0.2 0.3  0 0.3 0.2  0 0.3 0.3  0.2 0.2 0.2  0.2 0.3 0.2  0.2 0.3 0.3  0.2 0.2 0.3  0.3 0.2 0.2  0.3 0.3 0.2  0.3 0.3 0.3  0.3 0.2 0.3  0.4 0.2 0.2  0.4 0.3 0.2  0.4 0.3 0.3  0.4 0.2 0.3  0.5 0.2 0.2  0.5 0.3 0.2  0.5 0.3 0.3  0.5 0.2 0.3  0.6 0.2 0.2  0.6 0.3 0.2  0.6 0.3 0.3  0.6 0.2 0.3  0.7 0.2 0.2  0.7 0.3 0.2  0.7 0.3 0.3  0.7 0.2 0.3  0.8 0.2 0.2  0.8 0.3 0.2  0.8 0.3 0.3  0.8 0.2 0.3  0.9 0.2 0.2  0.9 0.3 0.2  0.9 0.3 0.3  0.9 0.2 0.3  1 0.2 0.2  1 0.3 0.2  1 0.3 0.3  1 0.2 0.3  0.1 0.4 0.2  0.1 0.4 0.3  0 0.4 0.2  0 0.4 0.3  0.2 0.4 0.2  0.2 0.4 0.3  0.3 0.4 0.2  0.3 0.4 0.3  0.4 0.4 0.2  0.4 0.4 0.3  0.5 0.4 0.2  0.5 0.4 0.3  0.6 0.4 0.2  0.6 0.4 0.3  0.7 0.4 0.2  0.7 0.4 0.3  0.8 0.4 0.2  0.8 0.4 0.3  0.9 0.4 0.2  0.9 0.4 0.3  1 0.4 0.2  1 0.4 0.3  0.1 0.5 0.2  0.1 0.5 0.3  0 0.5 0.2  0 0.5 0.3  0.2 0.5 0.2  0.2 0.5 0.3  0.3 0.5 0.2  0.3 0.5 0.3  0.4 0.5 0.2  0.4 0.5 0.3  0.5 0.5 0.2  0.5 0.5 0.3  0.6 0.5 0.2  0.6 0.5 0.3  0.7 0.5 0.2  0.7 0.5 0.3  0.8 0.5 0.2  0.8 0.5 0.3  0.9 0.5 0.2  0.9 0.5 0.3  1 0.5 0.2  1 0.5 0.3  0.1 0.6 0.2  0.1 0.6 0.3  0 0.6 0.2  0 0.6 0.3  0.2 0.6 0.2  0.2 0.6 0.3  0.3 0.6 0.2  0.3 0.6 0.3  0.4 0.6 0.2  0.4 0.6 0.3  0.5 0.6 0.2  0.5 0.6 0.3  0.6 0.6 0.2  0.6 0.6 0.3  0.7 0.6 0.2  0.7 0.6 0.3  0.8 0.6 0.2  0.8 0.6 0.3  0.9 0.6 0.2  0.9 0.6 0.3  1 0.6 0.2  1 0.6 0.3  0.1 0.7 0.2  0.1 0.7 0.3  0 0.7 0.2  0 0.7 0.3  0.2 0.7 0.2  0.2 0.7 0.3  0.3 0.7 0.2  0.3 0.7 0.3  0.4 0.7 0.2  0.4 0.7 0.3  0.5 0.7 0.2  0.5 0.7 0.3  0.6 0.7 0.2  0.6 0.7 0.3  0.7 0.7 0.2  0.7 0.7 0.3  0.8 0.7 0.2  0.8 0.7 0.3  0.9 0.7 0.2  0.9 0.7 0.3  1 0.7 0.2  1 0.7 0.3  0.1 0.8 0.2  0.1 0.8 0.3  0 0.8 0.2  0 0.8 0.3  0.2 0.8 0.2  0.2 0.8 0.3  0.3 0.8 0.2  0.3 0.8 0.3  0.4 0.8 0.2  0.4 0.8 0.3  0.5 0.8 0.2  0.5 0.8 0.3  0.6 0.8 0.2  0.6 0.8 0.3  0.7 0.8 0.2  0.7 0.8 0.3  0.8 0.8 0.2  0.8 0.8 0.3  0.9 0.8 0.2  0.9 0.8 0.3  1 0.8 0.2  1 0.8 0.3  0.1 0.3 0.4  0.1 0.2 0.4  0 0.2 0.4  0 0.3 0.4  0.2 0.3 0.4  0.2 0.2 0.4  0.3 0.3 0.4  0.3 0.2 0.4  0.4 0.3 0.4  0.4 0.2 0.4  0.5 0.3 0.4  0.5 0.2 0.4  0.6 0.3 0.4  0.6 0.2 0.4  0.7 0.3 0.4  0.7 0.2 0.4  0.8 0.3 0.4  0.8 0.2 0.4  0.9 0.3 0.4  0.9 0.2 0.4  1 0.3 0.4  1 0.2 0.4  0.1 0.4 0.4  0 0.4 0.4  0.2 0.4 0.4  0.3 0.4 0.4  0.4 0.4 0.4  0.5 0.4 0.4  0.6 0.4 0.4  0.7 0.4 0.4  0.8 0.4 0.4  0.9 0.4 0.4  1 0.4 0.4  0.1 0.5 0.4  0 0.5 0.4  0.2 0.5 0.4  0.3 0.5 0.4  0.4 0.5 0.4  0.5 0.5 0.4  0.6 0.5 0.4  0.7 0.5 0.4  0.8 0.5 0.4  0.9 0.5 0.4  1 0.5 0.4  0.1 0.6 0.4  0 0.6 0.4  0.2 0.6 0.4  0.3 0.6 0.4  0.4 0.6 0.4  0.5 0.6 0.4  0.6 0.6 0.4  0.7 0.6 0.4  0.8 0.6 0.4  0.9 0.6 0.4  1 0.6 0.4  0.1 0.7 0.4  0 0.7 0.4  0.2 0.7 0.4  0.3 0.7 0.4  0.4 0.7 0.4  0.5 0.7 0.4  0.6 0.7 0.4  0.7 0.7 0.4  0.8 0.7 0.4  0.9 0.7 0.4  1 0.7 0.4  0.1 0.8 0.4  0 0.8 0.4  0.2 0.8 0.4  0.3 0.8 0.4  0.4 0.8 0.4  0.5 0.8 0.4  0.6 0.8 0.4  0.7 0.8 0.4  0.8 0.8 0.4  0.9 0.8 0.4  1 0.8 0.4  0.1 0.3 0.5  0.1 0.2 0.5  0 0.2 0.5  0 0.3 0.5  0.2 0.3 0.5  0.2 0.2 0.5  0.3 0.3 0.5  0.3 0.2 0.5  0.4 0.3 0.5  0.4 0.2 0.5  0.5 0.3 0.5  0.5 0.2 0.5  0.6 0.3 0.5  0.6 0.2 0.5  0.7 0.3 0.5  0.7 0.2 0.5  0.8 0.3 0.5  0.8 0.2 0.5  0.9 0.3 0.5  0.9 0.2 0.5  1 0.3 0.5  1 0.2 0.5  0.1 0.4 0.5  0 0.4 0.5  0.2 0.4 0.5  0.3 0.4 0.5  0.4 0.4 0.5  0.5 0.4 0.5  0.6 0.4 0.5  0.7 0.4 0.5  0.8 0.4 0.5  0.9 0.4 0.5  1 0.4 0.5  0.1 0.5 0.5  0 0.5 0.5  0.2 0.5 0.5  0.3 0.5 0.5  0.4 0.5 0.5  0.5 0.5 0.5  0.6 0.5 0.5  0.7 0.5 0.5  0.8 0.5 0.5  0.9 0.5 0.5  1 0.5 0.5  0.1 0.6 0.5  0 0.6 0.5  0.2 0.6 0.5  0.3 0.6 0.5  0.4 0.6 0.5  0.5 0.6 0.5  0.6 0.6 0.5  0.7 0.6 0.5  0.8 0.6 0.5  0.9 0.6 0.5  1 0.6 0.5  0.1 0.7 0.5  0 0.7 0.5  0.2 0.7 0.5  0.3 0.7 0.5  0.4 0.7 0.5  0.5 0.7 0.5  0.6 0.7 0.5  0.7 0.7 0.5  0.8 0.7 0.5  0.9 0.7 0.5  1 0.7 0.5  0.1 0.8 0.5  0 0.8 0.5  0.2 0.8 0.5  0.3 0.8 0.5  0.4 0.8 0.5  0.5 0.8 0.5  0.6 0.8 0.5  0.7 0.8 0.5  0.8 0.8 0.5  0.9 0.8 0.5  1 0.8 0.5  0.1 0.3 0.6  0.1 0.2 0.6  0 0.2 0.6  0 0.3 0.6  0.2 0.3 0.6  0.2 0.2 0.6  0.3 0.3 0.6  0.3 0.2 0.6  0.4 0.3 0.6  0.4 0.2 0.6  0.5 0.3 0.6  0.5 0.2 0.6  0.6 0.3 0.6  0.6 0.2 0.6  0.7 0.3 0.6  0.7 0.2 0.6  0.8 0.3 0.6  0.8 0.2 0.6  0.9 0.3 0.6  0.9 0.2 0.6  1 0.3 0.6  1 0.2 0.6  0.1 0.4 0.6  0 0.4 0.6  0.2 0.4 0.6  0.3 0.4 0.6  0.4 0.4 0.6  0.5 0.4 0.6  0.6 0.4 0.6  0.7 0.4 0.6  0.8 0.4 0.6  0.9 0.4 0.6  1 0.4 0.6  0.1 0.5 0.6  0 0.5 0.6  0.2 0.5 0.6  0.3 0.5 0.6  0.4 0.5 0.6  0.5 0.5 0.6  0.6 0.5 0.6  0.7 0.5 0.6  0.8 0.5 0.6  0.9 0.5 0.6  1 0.5 0.6  0.1 0.6 0.6  0 0.6 0.6  0.2 0.6 0.6  0.3 0.6 0.6  0.4 0.6 0.6  0.5 0.6 0.6  0.6 0.6 0.6  0.7 0.6 0.6  0.8 0.6 0.6  0.9 0.6 0.6  1 0.6 0.6  0.1 0.7 0.6  0 0.7 0.6  0.2 0.7 0.6  0.3 0.7 0.6  0.4 0.7 0.6  0.5 0.7 0.6  0.6 0.7 0.6  0.7 0.7 0.6  0.8 0.7 0.6  0.9 0.7 0.6  1 0.7 0.6  0.1 0.8 0.6  0 0.8 0.6  0.2 0.8 0.6  0.3 0.8 0.6  0.4 0.8 0.6  0.5 0.8 0.6  0.6 0.8 0.6  0.7 0.8 0.6  0.8 0.8 0.6  0.9 0.8 0.6  1 0.8 0.6  0.1 0.3 0.7  0.1 0.2 0.7  0 0.2 0.7  0 0.3 0.7  0.2 0.3 0.7  0.2 0.2 0.7  0.3 0.3 0.7  0.3 0.2 0.7  0.4 0.3 0.7  0.4 0.2 0.7  0.5 0.3 0.7  0.5 0.2 0.7  0.6 0.3 0.7  0.6 0.2 0.7  0.7 0.3 0.7  0.7 0.2 0.7  0.8 0.3 0.7  0.8 0.2 0.7  0.9 0.3 0.7  0.9 0.2 0.7  1 0.3 0.7  1 0.2 0.7  0.1 0.4 0.7  0 0.4 0.7  0.2 0.4 0.7  0.3 0.4 0.7  0.4 0.4 0.7  0.5 0.4 0.7  0.6 0.4 0.7  0.7 0.4 0.7  0.8 0.4 0.7  0.9 0.4 0.7  1 0.4 0.7  0.1 0.5 0.7  0 0.5 0.7  0.2 0.5 0.7  0.3 0.5 0.7  0.4 0.5 0.7  0.5 0.5 0.7  0.6 0.5 0.7  0.7 0.5 0.7  0.8 0.5 0.7  0.9 0.5 0.7  1 0.5 0.7  0.1 0.6 0.7  0 0.6 0.7  0.2 0.6 0.7  0.3 0.6 0.7  0.4 0.6 0.7  0.5 0.6 0.7  0.6 0.6 0.7  0.7 0.6 0.7  0.8 0.6 0.7  0.9 0.6 0.7  1 0.6 0.7  0.1 0.7 0.7  0 0.7 0.7  0.2 0.7 0.7  0.3 0.7 0.7  0.4 0.7 0.7  0.5 0.7 0.7  0.6 0.7 0.7  0.7 0.7 0.7  0.8 0.7 0.7  0.9 0.7 0.7  1 0.7 0.7  0.1 0.8 0.7  0 0.8 0.7  0.2 0.8 0.7  0.3 0.8 0.7  0.4 0.8 0.7  0.5 0.8 0.7  0.6 0.8 0.7  0.7 0.8 0.7  0.8 0.8 0.7  0.9 0.8 0.7  1 0.8 0.7  0.1 0.3 0.8  0.1 0.2 0.8  0 0.2 0.8  0 0.3 0.8  0.2 0.3 0.8  0.2 0.2 0.8  0.3 0.3 0.8  0.3 0.2 0.8  0.4 0.3 0.8  0.4 0.2 0.8  0.5 0.3 0.8  0.5 0.2 0.8  0.6 0.3 0.8  0.6 0.2 0.8  0.7 0.3 0.8  0.7 0.2 0.8  0.8 0.3 0.8  0.8 0.2 0.8  0.9 0.3 0.8  0.9 0.2 0.8  1 0.3 0.8  1 0.2 0.8  0.1 0.4 0.8  0 0.4 0.8  0.2 0.4 0.8  0.3 0.4 0.8  0.4 0.4 0.8  0.5 0.4 0.8  0.6 0.4 0.8  0.7 0.4 0.8  0.8 0.4 0.8  0.9 0.4 0.8  1 0.4 0.8  0.1 0.5 0.8  0 0.5 0.8  0.2 0.5 0.8  0.3 0.5 0.8  0.4 0.5 0.8  0.5 0.5 0.8  0.6 0.5 0.8  0.7 0.5 0.8  0.8 0.5 0.8  0.9 0.5 0.8  1 0.5 0.8  0.1 0.6 0.8  0 0.6 0.8  0.2 0.6 0.8  0.3 0.6 0.8  0.4 0.6 0.8  0.5 0.6 0.8  0.6 0.6 0.8  0.7 0.6 0.8  0.8 0.6 0.8  0.9 0.6 0.8  1 0.6 0.8  0.1 0.7 0.8  0 0.7 0.8  0.2 0.7 0.8  0.3 0.7 0.8  0.4 0.7 0.8  0.5 0.7 0.8  0.6 0.7 0.8  0.7 0.7 0.8  0.8 0.7 0.8  0.9 0.7 0.8  1 0.7 0.8  0.1 0.8 0.8  0 0.8 0.8  0.2 0.8 0.8  0.3 0.8 0.8  0.4 0.8 0.8  0.5 0.8 0.8  0.6 0.8 0.8  0.7 0.8 0.8  0.8 0.8 0.8  0.9 0.8 0.8  1 0.8 0.8  </DataArray>
</Points>
<Cells>
[...]
<PointData  Vectors="f_23"> 
<DataArray  type="Float64"  Name="f_23"  NumberOfComponents="3" format="ascii">-7.7848107253203379e-05 -6.4406667816725564e-05 1.4714064860074870e-05  -3.8517007862669389e-05 -9.6958743927773579e-05 1.5273150549708748e-05  -6.9871523275047502e-05 -6.5330095309803642e-05 8.1368187075396794e-06  8.7613721582067233e-02 -1.1149731391423313e-04 -3.2042326560423161e-04  -3.4902641161029101e-05 -9.7262790012517906e-05 1.6003174543638666e-05  -7.1314456272018393e-05 -6.5343887641985591e-05 1.2493270071334868e-05  -1.0502562662684395e-04 -3.7121922601418791e-05 8.1575847691493173e-06  8.7650806891707109e-02 -3.3637424883033146e-04 -8.1023937150228806e-04  3.9600471672898740e-06 -1.4798194681148340e-04 3.2508218130194721e-05  -2.2413370887582430e-05 -1.0808824619481746e-04 1.7881829982194118e-05  8.8091219579278679e-02 6.4089230963316923e-07 -1.4096785391987977e-04  1.7610869191652842e-05 -1.5829728762694012e-04 3.6909736325112674e-05  3.0627515201172519e-05 -1.8717582161207282e-04 6.5261256395975032e-05  9.4496694848139192e-06 -1.4109906855581743e-04 3.8273990314399059e-05  8.8040493801887790e-02 8.0667352989030562e-05 -1.5363182988451925e-04  6.2123787402155293e-05 -2.1546525302107525e-04 8.0549303662672743e-05  3.6179819439495161e-05 -2.0708708185917423e-04 1.1575703852919552e-04  2.7464612511841306e-05 -1.5904937040398323e-04 7.4176228355102720e-05  8.8087512931432993e-02 1.6790179017663455e-04 -2.3297689155642149e-04  8.5411876150765084e-05 -2.6103888304832273e-04 1.5691620773545324e-04  7.7276375418782521e-06 -1.9590316867986417e-04 1.7228102149565366e-04  1.8501818262375386e-05 -1.5461960562043869e-04 1.2108261602337397e-04  8.8232260071209462e-02 2.8086079492984831e-04 -3.4999093567476326e-04  5.9258338330195356e-05 -2.7740123394830982e-04 2.5895805654358855e-04  -4.4190929121041086e-05 -1.4846695292485351e-04 2.0581780370557793e-04  -1.7418582167949476e-05 -1.2315475335647464e-04 1.5944042528818445e-04  8.8454243007847377e-02 3.9089846308001860e-04 -4.7119718512860485e-04  -2.5982734863353921e-05 -2.4270224171295038e-04 3.4679867031867497e-04  -6.3440641742917300e-05 -8.2636609573032296e-05 1.7965102396069963e-04  -4.3644615091609683e-05 -7.3344283676666136e-05 1.5517036665977420e-04  8.8661043792032462e-02 4.4567263939372290e-04 -4.9870408916425854e-04  -1.1144252413703214e-04 -1.6002462073163532e-04 3.4636892330185414e-04  3.4827823203979745e-05 -3.6112800024895041e-05 1.0007130514002929e-04  1.9168725603708110e-05 -3.0624418328370869e-05 9.4284345193825002e-05  8.8530659281034138e-02 3.8616299448871155e-04 -2.2460780034336877e-04  -8.0249071974490465e-05 -8.1518024636710587e-05 2.0650825243322303e-04  2.0199711339864815e-04 -1.1359051719269468e-05 4.4414360141861298e-05  1.8185970773255551e-04 -1.1736355275560763e-05 4.8966747781028002e-05  8.7657802772233201e-02 1.3317941658107888e-04 1.2693215751245817e-04  8.7666702976933308e-05 -2.5512127481715206e-05 9.4902247546314427e-05  2.9819107976131290e-04 -5.1061650053588619e-06 6.8491304051293968e-05  3.0269171845994492e-04 -6.9643632301605530e-06 5.4915086729622092e-05  8.6165344839603156e-02 -2.4642434985310365e-04 -1.1940809822913250e-03  2.3596416840990743e-04 -1.9967244244405476e-05 9.5597979569060848e-05  -1.0699541124192676e-04 -3.5517283623402615e-05 4.3195666253063283e-06  1.1771818749749734e-01 1.5225339196209238e-04 -3.6784427897466876e-04  -1.3848580432024752e-04 -1.7409653504972317e-05 6.3182343428115196e-06  1.1828156580589434e-01 -3.6369745113065801e-04 -9.0899666881347880e-04  -5.5957154060799735e-05 -6.4374365132961563e-05 9.0896545094875424e-06  1.1810409172707090e-01 1.5045309771158342e-04 -1.3401117952278335e-04  -1.2203202398432038e-05 -8.9237411180872702e-05 2.0737357656692035e-05  1.1809078314052585e-01 1.7904005714742651e-04 -1.0005002310100478e-04  2.2805246134483251e-05 -1.0261846855332071e-04 4.5616608302867921e-05  1.1811015814058723e-01 2.3534367152118718e-04 -1.1563197904305296e-04  3.5171567554114070e-05 -1.0010073634254536e-04 8.3465972174148897e-05  1.1819755125199745e-01 3.1027665674889150e-04 -1.3217120518538896e-04  1.7225347350641263e-05 -7.8902114632398271e-05 1.2199577974479227e-04  1.1831541421450616e-01 3.5697336244603891e-04 -1.2183836447765838e-04  -6.9100613235186168e-06 -4.3110973971624400e-05 1.3079738533498038e-04  1.1838644999094541e-01 2.9892079779399400e-04 -4.2305622305613381e-05  4.1720532505825405e-05 -1.1204808698095089e-05 8.5047616422161715e-05  1.1829490309323634e-01 8.2748336902234139e-05 1.1798746988714572e-04  1.9442921832602640e-04 -6.4321253699753455e-06 4.4319126058877062e-05  1.1792736828633553e-01 -2.5173954512630419e-04 -4.7989670965243039e-05  3.0846776644378841e-04 -2.1693702004880704e-06 5.2607030939886246e-05  1.1670470248051047e-01 -1.4304688171828885e-04 -1.8213144719885573e-03  -1.3063589199904511e-04 -2.1176226957617290e-05 4.7905648327873424e-06  1.2774002671370402e-01 1.3463540627040997e-04 -3.2557640641948542e-04  -1.5663109725637969e-04 -8.6430222325317845e-06 6.6257301180650912e-06  1.2830135399572246e-01 -2.5031013636650127e-04 -8.7913769429488211e-04  -8.1387952204387996e-05 -4.0787802263580188e-05 8.6177671276200338e-06  1.2809012818485518e-01 1.7435266868077052e-04 -8.3776686338434307e-05  -2.9241296389052763e-05 -6.0076897251427567e-05 1.7768707417838650e-05  1.2810035262041669e-01 1.7085903632229078e-04 -3.9664006731646197e-05  1.8629796493859095e-05 -7.1497065979147340e-05 3.8646122996994543e-05  1.2814811435333237e-01 1.8198217662111684e-04 -3.5122341773906926e-05  4.6831488257154420e-05 -7.1357432235916656e-05 7.2471586460534599e-05  1.2823650532066785e-01 2.0445553623845800e-04 -2.2873666516973974e-05  4.3622153356551318e-05 -5.6864839332293470e-05 1.1022372600403099e-04  1.2830608205170538e-01 2.0613217427404079e-04 1.5164031373973983e-05  2.3965067064217700e-05 -2.7644780666368479e-05 1.2449127055604196e-04  1.2827447343667459e-01 1.3802674100737414e-04 9.5279497187125136e-05  5.9321232944901815e-05 4.5242827152182543e-06 8.5095924642705431e-05  1.2812289010966924e-01 -2.8514075325783505e-05 1.5621556654402480e-04  1.9470103463549107e-04 1.6415252352950242e-06 4.3584840467139910e-05  1.2795816123680506e-01 -2.4266366423208777e-04 -2.6507961764610845e-04  2.9480460835674206e-04 1.2180023317064151e-05 5.6306674362676946e-05  1.2693390244794292e-01 -4.2016609126828749e-05 -1.9025236818519741e-03  -1.4656190723543310e-04 -1.2954408503872818e-05 6.8238234384787781e-06  1.1763538548970202e-01 1.2868069584304377e-04 -2.8147523905735616e-04  -1.6727464741793588e-04 -7.8355208188009439e-06 6.8140868194409732e-06  1.1805803498406871e-01 -1.4415618197669494e-04 -8.0464606627183341e-04  -1.0166164666966781e-04 -2.7581204541700155e-05 1.3042198399079741e-05  1.1798834092701591e-01 1.3687412423651587e-04 -6.0787961656964461e-05  -4.5324930342312623e-05 -4.4149159327279194e-05 2.3759774407734808e-05  1.1800790484666562e-01 1.0805129188340461e-04 -1.5769484645800943e-05  1.1213293808613131e-05 -5.6142792870379966e-05 4.4272705392449393e-05  1.1806080961500701e-01 8.4715243262987585e-05 -3.4506317180562050e-06  5.1260816725604445e-05 -5.9862728129411952e-05 7.5817058412284567e-05  1.1813835201993542e-01 6.8946977913381620e-05 1.9749953850262715e-05  6.2068024424230721e-05 -5.2478472374077071e-05 1.1091121933474269e-04  1.1816696708338795e-01 5.0737457491679481e-05 6.8249897718127716e-05  5.2431906567530681e-05 -3.0820064335199243e-05 1.2575620586706730e-04  1.1806997791098386e-01 2.0647443547077638e-05 1.4607058720595410e-04  7.9900447159893115e-05 2.2145506858564482e-06 8.9303899952347530e-05  1.1788223284795067e-01 -1.9456292497411350e-05 1.5080708190110892e-04  1.8945824814157493e-04 3.5963760860084884e-06 4.4676615088695930e-05  1.1779448203331010e-01 -4.1252577636213131e-05 -3.4055872124904148e-04  2.6879697013977366e-04 1.9056704432667009e-05 5.7167651871925447e-05  1.1706454817277549e-01 1.4064212150138714e-04 -1.7558136475681026e-03  -1.5624443503154840e-04 -8.1722085484704908e-06 4.9194049793151100e-06  8.6684750791212004e-02 7.0569976654475116e-05 -2.5178573500567934e-04  -1.7250673547943411e-04 -4.4206200746317572e-06 2.9743309130980600e-06  8.6374828200700152e-02 -3.6050067634076023e-04 -6.9654814466714411e-04  -1.2023520077400440e-04 -1.6793913641012570e-05 1.5217821280107249e-05  8.6987082077373157e-02 4.6574031346035161e-05 -6.0042280385543971e-05  -6.4055988173278728e-05 -3.2451869056613543e-05 2.8787951285476448e-05  8.6965031125725512e-02 -2.0631271496415084e-05 -1.7095155560543181e-05  -1.1109392328219244e-06 -4.7620665690519481e-05 4.9260918366354100e-05  8.6955783075518364e-02 -8.2959005485178788e-05 7.2812076303116723e-06  4.8765683807494398e-05 -5.5886719411479519e-05 7.7857522227064852e-05  8.6956029694890732e-02 -1.4254506734011967e-04 5.3211890905560441e-05  7.0455032105682657e-05 -5.4317541024452705e-05 1.0956898971624831e-04  8.6906913323011967e-02 -1.9326131736825255e-04 1.3277964987956083e-04  7.1027484795384117e-05 -4.0963950729245677e-05 1.2586942675640479e-04  8.6758536861012245e-02 -2.1602417549047387e-04 2.3359918864222911e-04  1.0098425959214882e-04 -1.6482992905195697e-05 9.7428063020100073e-05  8.6549228504996439e-02 -1.8882814293531545e-04 2.3691985344503362e-04  1.8872592166618182e-04 3.3491886158668946e-07 4.7202986382625115e-05  8.6341628653304581e-02 -1.7229125438563688e-04 -1.6152087754536782e-04  2.4709084405209378e-04 8.8666359516041890e-06 5.6100263182194071e-05  8.6198202324245465e-02 1.5744090672155150e-04 -1.3629268538185185e-03  -1.7175203132105920e-04 -1.1931693902760762e-05 9.2019772192747612e-06  -1.7562646326591119e-04 -3.2862927185849722e-06 3.1550949081370786e-06  -1.8562293140816948e-04 -3.3932017631891288e-07 -1.7288818690513929e-06  -1.7745487777027420e-04 -8.5929612988265955e-06 9.7012824669429058e-08  -1.3832155731130497e-04 -1.4590140278672615e-05 8.6331848401542284e-06  -1.5286769148699413e-04 -9.2409053245850738e-06 9.5107470970346787e-06  -9.0012433111805214e-05 -2.4599527071531547e-05 1.3970898959969158e-05  -1.0670928181418159e-04 -2.0751155116942970e-05 1.9393654887336050e-05  -2.8443962748818481e-05 -3.8537231880864858e-05 2.4801528541791089e-05  -4.4304056497240854e-05 -3.7433629258918320e-05 3.6332974487386961e-05  2.8481778879936574e-05 -4.7468174440687176e-05 4.0637347040439623e-05  1.8191065639208627e-05 -5.0361303764228927e-05 6.2232188107784310e-05  6.2911654424797726e-05 -4.8294826409625189e-05 6.2101363020036212e-05  6.1026180454351231e-05 -5.5399910402033846e-05 9.6743027257695198e-05  6.8414843460991046e-05 -3.9987513815264616e-05 8.3537793871094157e-05  6.9137285199302528e-05 -4.9488757974787107e-05 1.2956065998116789e-04  7.7943273549086115e-05 -2.2379268181034018e-05 8.4921431806761811e-05  5.8233663754116587e-05 -3.0579171893230823e-05 1.3400199892395331e-04  1.6972724396848229e-04 -2.6134536775523323e-07 5.4291936958361265e-05  1.1045172111348237e-04 -9.7119496545538613e-06 9.0594348931248729e-05  2.3290185673557507e-04 1.5057999165927483e-06 6.2738058800885962e-05  1.7043866351496565e-04 1.3741043280773423e-05 6.3565181707482345e-05  1.1764561178203295e-01 -1.4282641113854311e-04 -8.8574751740796493e-05  -2.0018668951253417e-05 -1.0169302543248226e-04 1.3154802599698749e-05  -6.0820358854133926e-05 -6.5785808928958209e-05 8.2338714843671866e-06  1.1814592339695182e-01 -3.2676074670110426e-04 -8.5365096787681349e-04  1.1797127709709537e-01 -3.9396486320941417e-05 -1.2340098724285532e-05  4.9560305786643260e-05 -1.7322787227634268e-04 3.6400539618332925e-05  1.1790434603956962e-01 4.7900725730311071e-05 -8.4945252699949759e-05  1.3203422103253451e-04 -2.5439423937899825e-04 9.2908151845248003e-05  1.1788271717970945e-01 1.4806684176027642e-04 -2.3390096229201926e-04  2.0153975625140542e-04 -3.4313500899713388e-04 2.0623022324269536e-04  1.1798088156752085e-01 3.0859825878718622e-04 -4.7349980707665253e-04  2.0039577024081223e-04 -4.2196933412208028e-04 3.9055759870196814e-04  1.1827162596868573e-01 5.2611028815894374e-04 -7.9545947316959898e-04  6.5902081385235364e-05 -4.4430981960424097e-04 6.1819219996509314e-04  1.1884672310774881e-01 6.5902100567640561e-04 -1.0398067563425633e-03  -1.6422276229803554e-04 -3.5996596418961602e-04 7.5896485542830793e-04  1.1921850566338481e-01 6.2616786703086134e-04 -8.8609896143771588e-04  -2.5694215753730522e-04 -2.0549954675337995e-04 5.6698055139082354e-04  1.1798570138597934e-01 3.4714952455229813e-04 -2.6997805699766184e-04  -1.4937337170970100e-04 -7.5478900199875943e-05 2.2795264497804777e-04  1.1649376590601308e-01 -5.6831110463063960e-04 -2.9078117049126410e-03  3.1058509279550603e-06 -5.0218794850393511e-05 2.5045909677887503e-04  1.6894773534523497e-01 1.8834670004650667e-04 -9.0995254784297425e-05  1.6920932510756428e-01 -3.6139302810614252e-04 -9.4602278511440093e-04  1.6917934694864722e-01 1.5990282990156805e-04 8.6436275959905745e-06  1.6923909117329503e-01 2.0308740273422622e-04 -3.6797804807221734e-05  1.6924204062470063e-01 3.0006981443481102e-04 -1.3449634535173330e-04  1.6931957708933865e-01 4.5876032613622854e-04 -2.7013437629943925e-04  1.6952850114996168e-01 6.3167650882596776e-04 -4.2053601476161484e-04  1.6984630617016824e-01 6.4857355806934350e-04 -4.7944139984072644e-04  1.6998469426291668e-01 2.8975649165405390e-04 -3.0453346281556133e-04  1.6940205656021920e-01 -4.1622400524701152e-04 -3.7382234430976229e-04  1.6797732876397942e-01 -2.0336713008737390e-04 -3.4018752806476813e-03  1.8616025747197726e-01 1.4147725002213138e-04 -6.8295304746108186e-05  1.8634120980555152e-01 -2.4603002082045962e-04 -9.1757831672277263e-04  1.8637797506063022e-01 1.8642835744731218e-04 4.2095489018112485e-05  1.8647252857843427e-01 1.8964970301349514e-04 1.3792081352084665e-05  1.8652127405104243e-01 2.2290488054597219e-04 -5.6483190036104523e-05  1.8662398628816818e-01 2.9128726461561880e-04 -1.5360920916052890e-04  1.8680330226044797e-01 3.5361773512238985e-04 -2.7379890684296022e-04  1.8696878181260485e-01 3.0431149015806613e-04 -3.6122947038811189e-04  1.8687129869793462e-01 6.3680389844070245e-06 -3.4412967186987331e-04  1.8641380461126072e-01 -5.1911119974254179e-04 -7.8076548375229766e-04  1.8526365416995716e-01 -1.5416528529130241e-04 -3.4086045673824665e-03  1.6887949820958059e-01 1.1457188285175139e-04 -4.3534275257313877e-05  1.6891222510219658e-01 -1.4956195575317212e-04 -8.3859812671892590e-04  1.6911080064224179e-01 1.4165626699707008e-04 5.5041542973091290e-05  1.6920879817766799e-01 1.1624034247551823e-04 3.6060105589767551e-05  1.6926707651403486e-01 9.8739618108615646e-05 -1.2358096717869867e-05  1.6936391303105458e-01 9.7762072686143566e-05 -7.9078704540339390e-05  1.6949470871563069e-01 9.4917110825438954e-05 -1.6775624420314620e-04  1.6953667300255079e-01 5.1017499770640951e-05 -2.5080855911870185e-04  1.6931523156021797e-01 -7.7329400170096378e-05 -2.9546401939940488e-04  1.6895774307159012e-01 -2.5613099124051120e-04 -8.9885672731433524e-04  1.6839371634436792e-01 1.1366410123291065e-04 -3.0703959289386032e-03  1.1755919321655786e-01 2.5568498710690162e-05 -1.8931450240179791e-07  1.1691734436701681e-01 -3.9001893855774401e-04 -6.7456755424695882e-04  1.1774490364952067e-01 3.8357012144553652e-05 6.3561750360820161e-05  1.1778470718134432e-01 -1.8952464516725487e-05 5.3935340573280872e-05  1.1777798063711320e-01 -8.3751953655774228e-05 4.6450441934489388e-05  1.1777820890018997e-01 -1.4394137195734925e-04 5.0278697643973666e-05  1.1778511810455776e-01 -1.9900040251014041e-04 6.7675326233226487e-05  1.1771049552111534e-01 -2.4069022707423672e-04 1.1043466692262390e-04  1.1741692535788605e-01 -2.5087262808076971e-04 1.0240631054104814e-04  1.1697289675845693e-01 -2.6246363274754403e-04 -4.9599108015141924e-04  1.1739612066862107e-01 1.8095144892224963e-04 -2.2430711062799620e-03  -1.7154811556522440e-04 -3.9902942615788598e-06 3.4526986177461898e-06  -1.7561919878582497e-04 -8.2673022259056031e-06 4.6374980447434435e-06  -1.4644910288970245e-04 -9.2030266776340058e-06 1.1570927950050733e-05  -9.5677977347085992e-05 -1.5353525673891854e-05 2.2894778455828659e-05  -2.2466963071024166e-05 -2.7235959242383353e-05 4.9266383636984863e-05  5.3480692975653670e-05 -3.8381732037134378e-05 9.5079748082935905e-05  1.0620523926270399e-04 -4.4739857407599021e-05 1.5905584193384316e-04  1.0425081305743243e-04 -4.2020888702455641e-05 2.2431765169907868e-04  4.3749693552203838e-05 -2.5694385059208963e-05 2.4698742382693741e-04  2.9971873237434305e-05 -5.6498743060016005e-06 1.8413905029040852e-04  6.6333241230672756e-05 1.9156868234343715e-05 1.4919863769345334e-04  1.2763123922339575e-01 -1.3385043593747766e-04 -1.8659550505300286e-05  -7.8956352375578594e-06 -9.9878010071017528e-05 5.6644904026020654e-06  -5.3785002319570420e-05 -6.3299375921486544e-05 2.5709187092729689e-06  1.2812166612536338e-01 -3.2009738779180413e-04 -6.4469027287673418e-04  1.2790063268951032e-01 -2.7029947194047237e-05 1.0853008263201685e-04  8.4233376313909306e-05 -1.7603109332829442e-04 2.3484067597039454e-05  1.2779754476400801e-01 5.6393050465774070e-05 7.7709464079395163e-05  2.1818323771760834e-04 -2.7369542651828826e-04 7.6202199869796088e-05  1.2775042471219883e-01 1.6284194229407637e-04 -2.2661898905858639e-05  3.7315510869740905e-04 -4.0425308089372676e-04 1.9939593418806566e-04  1.2781916555812364e-01 3.6797239140602396e-04 -2.4330088921158431e-04  4.7785751385125304e-04 -5.7106336405714794e-04 4.4314647495291229e-04  1.2811441959859374e-01 7.7026611370687608e-04 -6.7133433404922664e-04  3.7030339384410961e-04 -7.3312629601444013e-04 8.5292360777669692e-04  1.2880072283584409e-01 1.3171238926617983e-03 -1.2586825626649189e-03  -1.0025589873089076e-04 -7.6556849454053092e-04 1.3634026309126657e-03  1.2975962463602717e-01 1.1740677880870015e-03 -1.6158838824444732e-03  -5.4542645960096948e-04 -5.4297991069684928e-04 1.6060531079750515e-03  1.2805769895392660e-01 9.2511488769475840e-04 -1.4572388215776434e-03  -6.5443879822565812e-04 -2.3800786560500956e-04 6.4238033444854092e-04  1.2481173605863836e-01 3.1803647059182647e-04 -6.1171636278773778e-03  -7.0162407812563614e-04 -1.5728994640888907e-04 8.0047617489052204e-04  1.8613541343930473e-01 2.0046398032164909e-04 -3.7306084231588404e-05  1.8632666931265549e-01 -3.5012055950266630e-04 -7.1659473907132929e-04  1.8633767906846213e-01 1.7272698938891709e-04 1.2310123071200785e-04  1.8640007353016574e-01 2.2824729198413300e-04 9.3994557000415783e-05  1.8643187407418710e-01 3.5713419296249586e-04 2.9347770587403507e-06  1.8655234690160302e-01 6.0327250175030945e-04 -1.5858801164426106e-04  1.8684552355384840e-01 9.8642915969742958e-04 -4.0876937142032924e-04  1.8729022257798728e-01 1.2988947860669096e-03 -6.6376366037798021e-04  1.8741897024059753e-01 8.6750833532301481e-04 -7.4018684548712995e-04  1.8629035434844371e-01 -5.9655664177474309e-04 -4.9240322002298310e-04  1.8391368884328407e-01 2.3372992396432729e-04 -5.7811390164863629e-03  2.0590922025280969e-01 1.5215761601049317e-04 -2.5988030542051502e-05  2.0600745161907622e-01 -2.2750480523880663e-04 -7.1136393371121448e-04  2.0610916465433116e-01 1.9473812844683137e-04 1.3976100805221679e-04  2.0622832843431654e-01 2.0811934376364243e-04 1.2474751973067834e-04  2.0631120513149634e-01 2.6165849232178496e-04 5.8616027033047102e-05  2.0646035714406602e-01 3.7275706238875056e-04 -5.8143914609191133e-05  2.0673702635194566e-01 5.0812672370620555e-04 -2.5468489629217934e-04  2.0703440634303671e-01 5.0670932698374937e-04 -5.2681121993011901e-04  2.0670636351236707e-01 4.5430764885698992e-05 -8.0000331718039542e-04  2.0533058678097885e-01 -9.5925051804023780e-04 -8.7058225464373487e-04  2.0348224493926031e-01 -1.2396110504959336e-04 -5.0834119117293703e-03  1.8604794236051922e-01 1.1288835567545429e-04 -1.4141158288973265e-05  1.8601021800192993e-01 -1.3639396402550022e-04 -6.6389660963926775e-04  1.8625954262869926e-01 1.4736432483659058e-04 1.3962716745910176e-04  1.8638235568636868e-01 1.2422325042805066e-04 1.3403201380669149e-04  1.8647520737497675e-