<?xml version="1.0"?>
<VTKFile type="UnstructuredGrid"  version="0.1"  >
<UnstructuredGrid>
<Piece  NumberOfPoints="533" NumberOfCells="2122">
<Points>
<DataArray  type="Float64"  NumberOfComponents="3"  format="ascii">0 0.2 0.2  0.1 0.2 0.2  0.1 0.3 0.2  0.1 0.3 0.3  0.1 0.2 0.3  0 0.2 0.3  0 0.3 0.2  0 0.3 0.3  0.2 0.2 0.2  0.2 0.3 0.2  0.2 0.3 0.3  0.2 0.2 0.3  0.3 0.2 0.2  0.3 0.3 0.2  0.3 0.3 0.3  0.3 0.2 0.3  0.4 0.2 0.2  0.4 0.3 0.2  0.4 0.3 0.3  0.4 0.2 0.3  0.5 0.2 0.2  0.5 0.3 0.2  0.5 0.3 0.3  0.5 0.2 0.3  0.6 0.2 0.2  0.6 0.3 0.2  0.6 0.3 0.3  0.6 0.2 0.3  0.7 0.2 0.2  0.7 0.3 0.2  0.7 0.3 0.3  0.7 0.2 0.3  0.8 0.2 0.2  0.8 0.3 0.2  0.8 0.3 0.3  0.8 0.2 0.3  0.9 0.2 0.2  0.9 0.3 0.2  0.9 0.3 0.3  0.9 0.2 0.3  1 0.2 0.2  1 0.3 0.2  1 0.3 0.3  1 0.2 0.3  0.1 0.4 0.2  0.1 0.4 0.3  0 0.4 0.2  0 0.4 0.3  0.2 0.4 0.2  0.2 0.4 0.3  0.3 0.4 0.2  0.3 0.4 0.3  0.4 0.4 0.2  0.4 0.4 0.3  0.5 0.4 0.2  0.5 0.4 0.3  0.6 0.4 0.2  0.6 0.4 0.3  0.7 0.4 0.2  0.7 0.4 0.3  0.8 0.4 0.2  0.8 0.4 0.3  0.9 0.4 0.2  0.9 0.4 0.3  1 0.4 0.2  1 0.4 0.3  0.1 0.5 0.2  0.1 0.5 0.3  0 0.5 0.2  0 0.5 0.3  0.2 0.5 0.2  0.2 0.5 0.3  0.3 0.5 0.2  0.3 0.5 0.3  0.4 0.5 0.2  0.4 0.5 0.3  0.5 0.5 0.2  0.5 0.5 0.3  0.6 0.5 0.2  0.6 0.5 0.3  0.7 0.5 0.2  0.7 0.5 0.3  0.8 0.5 0.2  0.8 0.5 0.3  0.9 0.5 0.2  0.9 0.5 0.3  1 0.5 0.2  1 0.5 0.3  0.1 0.6 0.2  0.1 0.6 0.3  0 0.6 0.2  0 0.6 0.3  0.2 0.6 0.2  0.2 0.6 0.3  0.3 0.6 0.2  0.3 0.6 0.3  0.4 0.6 0.2  0.4 0.6 0.3  0.5 0.6 0.2  0.5 0.6 0.3  0.6 0.6 0.2  0.6 0.6 0.3  0.7 0.6 0.2  0.7 0.6 0.3  0.8 0.6 0.2  0.8 0.6 0.3  0.9 0.6 0.2  0.9 0.6 0.3  1 0.6 0.2  1 0.6 0.3  0.1 0.7 0.2  0.1 0.7 0.3  0 0.7 0.2  0 0.7 0.3  0.2 0.7 0.2  0.2 0.7 0.3  0.3 0.7 0.2  0.3 0.7 0.3  0.4 0.7 0.2  0.4 0.7 0.3  0.5 0.7 0.2  0.5 0.7 0.3  0.6 0.7 0.2  0.6 0.7 0.3  0.7 0.7 0.2  0.7 0.7 0.3  0.8 0.7 0.2  0.8 0.7 0.3  0.9 0.7 0.2  0.9 0.7 0.3  1 0.7 0.2  1 0.7 0.3  0.1 0.8 0.2  0.1 0.8 0.3  0 0.8 0.2  0 0.8 0.3  0.2 0.8 0.2  0.2 0.8 0.3  0.3 0.8 0.2  0.3 0.8 0.3  0.4 0.8 0.2  0.4 0.8 0.3  0.5 0.8 0.2  0.5 0.8 0.3  0.6 0.8 0.2  0.6 0.8 0.3  0.7 0.8 0.2  0.7 0.8 0.3  0.8 0.8 0.2  0.8 0.8 0.3  0.9 0.8 0.2  0.9 0.8 0.3  1 0.8 0.2  1 0.8 0.3  0.1 0.3 0.4  0.1 0.2 0.4  0 0.2 0.4  0 0.3 0.4  0.2 0.3 0.4  0.2 0.2 0.4  0.3 0.3 0.4  0.3 0.2 0.4  0.4 0.3 0.4  0.4 0.2 0.4  0.5 0.3 0.4  0.5 0.2 0.4  0.6 0.3 0.4  0.6 0.2 0.4  0.7 0.3 0.4  0.7 0.2 0.4  0.8 0.3 0.4  0.8 0.2 0.4  0.9 0.3 0.4  0.9 0.2 0.4  1 0.3 0.4  1 0.2 0.4  0.1 0.4 0.4  0 0.4 0.4  0.2 0.4 0.4  0.3 0.4 0.4  0.4 0.4 0.4  0.5 0.4 0.4  0.6 0.4 0.4  0.7 0.4 0.4  0.8 0.4 0.4  0.9 0.4 0.4  1 0.4 0.4  0.1 0.5 0.4  0 0.5 0.4  0.2 0.5 0.4  0.3 0.5 0.4  0.4 0.5 0.4  0.5 0.5 0.4  0.6 0.5 0.4  0.7 0.5 0.4  0.8 0.5 0.4  0.9 0.5 0.4  1 0.5 0.4  0.1 0.6 0.4  0 0.6 0.4  0.2 0.6 0.4  0.3 0.6 0.4  0.4 0.6 0.4  0.5 0.6 0.4  0.6 0.6 0.4  0.7 0.6 0.4  0.8 0.6 0.4  0.9 0.6 0.4  1 0.6 0.4  0.1 0.7 0.4  0 0.7 0.4  0.2 0.7 0.4  0.3 0.7 0.4  0.4 0.7 0.4  0.5 0.7 0.4  0.6 0.7 0.4  0.7 0.7 0.4  0.8 0.7 0.4  0.9 0.7 0.4  1 0.7 0.4  0.1 0.8 0.4  0 0.8 0.4  0.2 0.8 0.4  0.3 0.8 0.4  0.4 0.8 0.4  0.5 0.8 0.4  0.6 0.8 0.4  0.7 0.8 0.4  0.8 0.8 0.4  0.9 0.8 0.4  1 0.8 0.4  0.1 0.3 0.5  0.1 0.2 0.5  0 0.2 0.5  0 0.3 0.5  0.2 0.3 0.5  0.2 0.2 0.5  0.3 0.3 0.5  0.3 0.2 0.5  0.4 0.3 0.5  0.4 0.2 0.5  0.5 0.3 0.5  0.5 0.2 0.5  0.6 0.3 0.5  0.6 0.2 0.5  0.7 0.3 0.5  0.7 0.2 0.5  0.8 0.3 0.5  0.8 0.2 0.5  0.9 0.3 0.5  0.9 0.2 0.5  1 0.3 0.5  1 0.2 0.5  0.1 0.4 0.5  0 0.4 0.5  0.2 0.4 0.5  0.3 0.4 0.5  0.4 0.4 0.5  0.5 0.4 0.5  0.6 0.4 0.5  0.7 0.4 0.5  0.8 0.4 0.5  0.9 0.4 0.5  1 0.4 0.5  0.1 0.5 0.5  0 0.5 0.5  0.2 0.5 0.5  0.3 0.5 0.5  0.4 0.5 0.5  0.5 0.5 0.5  0.6 0.5 0.5  0.7 0.5 0.5  0.8 0.5 0.5  0.9 0.5 0.5  1 0.5 0.5  0.1 0.6 0.5  0 0.6 0.5  0.2 0.6 0.5  0.3 0.6 0.5  0.4 0.6 0.5  0.5 0.6 0.5  0.6 0.6 0.5  0.7 0.6 0.5  0.8 0.6 0.5  0.9 0.6 0.5  1 0.6 0.5  0.1 0.7 0.5  0 0.7 0.5  0.2 0.7 0.5  0.3 0.7 0.5  0.4 0.7 0.5  0.5 0.7 0.5  0.6 0.7 0.5  0.7 0.7 0.5  0.8 0.7 0.5  0.9 0.7 0.5  1 0.7 0.5  0.1 0.8 0.5  0 0.8 0.5  0.2 0.8 0.5  0.3 0.8 0.5  0.4 0.8 0.5  0.5 0.8 0.5  0.6 0.8 0.5  0.7 0.8 0.5  0.8 0.8 0.5  0.9 0.8 0.5  1 0.8 0.5  0.1 0.3 0.6  0.1 0.2 0.6  0 0.2 0.6  0 0.3 0.6  0.2 0.3 0.6  0.2 0.2 0.6  0.3 0.3 0.6  0.3 0.2 0.6  0.4 0.3 0.6  0.4 0.2 0.6  0.5 0.3 0.6  0.5 0.2 0.6  0.6 0.3 0.6  0.6 0.2 0.6  0.7 0.3 0.6  0.7 0.2 0.6  0.8 0.3 0.6  0.8 0.2 0.6  0.9 0.3 0.6  0.9 0.2 0.6  1 0.3 0.6  1 0.2 0.6  0.1 0.4 0.6  0 0.4 0.6  0.2 0.4 0.6  0.3 0.4 0.6  0.4 0.4 0.6  0.5 0.4 0.6  0.6 0.4 0.6  0.7 0.4 0.6  0.8 0.4 0.6  0.9 0.4 0.6  1 0.4 0.6  0.1 0.5 0.6  0 0.5 0.6  0.2 0.5 0.6  0.3 0.5 0.6  0.4 0.5 0.6  0.5 0.5 0.6  0.6 0.5 0.6  0.7 0.5 0.6  0.8 0.5 0.6  0.9 0.5 0.6  1 0.5 0.6  0.1 0.6 0.6  0 0.6 0.6  0.2 0.6 0.6  0.3 0.6 0.6  0.4 0.6 0.6  0.5 0.6 0.6  0.6 0.6 0.6  0.7 0.6 0.6  0.8 0.6 0.6  0.9 0.6 0.6  1 0.6 0.6  0.1 0.7 0.6  0 0.7 0.6  0.2 0.7 0.6  0.3 0.7 0.6  0.4 0.7 0.6  0.5 0.7 0.6  0.6 0.7 0.6  0.7 0.7 0.6  0.8 0.7 0.6  0.9 0.7 0.6  1 0.7 0.6  0.1 0.8 0.6  0 0.8 0.6  0.2 0.8 0.6  0.3 0.8 0.6  0.4 0.8 0.6  0.5 0.8 0.6  0.6 0.8 0.6  0.7 0.8 0.6  0.8 0.8 0.6  0.9 0.8 0.6  1 0.8 0.6  0.1 0.3 0.7  0.1 0.2 0.7  0 0.2 0.7  0 0.3 0.7  0.2 0.3 0.7  0.2 0.2 0.7  0.3 0.3 0.7  0.3 0.2 0.7  0.4 0.3 0.7  0.4 0.2 0.7  0.5 0.3 0.7  0.5 0.2 0.7  0.6 0.3 0.7  0.6 0.2 0.7  0.7 0.3 0.7  0.7 0.2 0.7  0.8 0.3 0.7  0.8 0.2 0.7  0.9 0.3 0.7  0.9 0.2 0.7  1 0.3 0.7  1 0.2 0.7  0.1 0.4 0.7  0 0.4 0.7  0.2 0.4 0.7  0.3 0.4 0.7  0.4 0.4 0.7  0.5 0.4 0.7  0.6 0.4 0.7  0.7 0.4 0.7  0.8 0.4 0.7  0.9 0.4 0.7  1 0.4 0.7  0.1 0.5 0.7  0 0.5 0.7  0.2 0.5 0.7  0.3 0.5 0.7  0.4 0.5 0.7  0.5 0.5 0.7  0.6 0.5 0.7  0.7 0.5 0.7  0.8 0.5 0.7  0.9 0.5 0.7  1 0.5 0.7  0.1 0.6 0.7  0 0.6 0.7  0.2 0.6 0.7  0.3 0.6 0.7  0.4 0.6 0.7  0.5 0.6 0.7  0.6 0.6 0.7  0.7 0.6 0.7  0.8 0.6 0.7  0.9 0.6 0.7  1 0.6 0.7  0.1 0.7 0.7  0 0.7 0.7  0.2 0.7 0.7  0.3 0.7 0.7  0.4 0.7 0.7  0.5 0.7 0.7  0.6 0.7 0.7  0.7 0.7 0.7  0.8 0.7 0.7  0.9 0.7 0.7  1 0.7 0.7  0.1 0.8 0.7  0 0.8 0.7  0.2 0.8 0.7  0.3 0.8 0.7  0.4 0.8 0.7  0.5 0.8 0.7  0.6 0.8 0.7  0.7 0.8 0.7  0.8 0.8 0.7  0.9 0.8 0.7  1 0.8 0.7  0.1 0.3 0.8  0.1 0.2 0.8  0 0.2 0.8  0 0.3 0.8  0.2 0.3 0.8  0.2 0.2 0.8  0.3 0.3 0.8  0.3 0.2 0.8  0.4 0.3 0.8  0.4 0.2 0.8  0.5 0.3 0.8  0.5 0.2 0.8  0.6 0.3 0.8  0.6 0.2 0.8  0.7 0.3 0.8  0.7 0.2 0.8  0.8 0.3 0.8  0.8 0.2 0.8  0.9 0.3 0.8  0.9 0.2 0.8  1 0.3 0.8  1 0.2 0.8  0.1 0.4 0.8  0 0.4 0.8  0.2 0.4 0.8  0.3 0.4 0.8  0.4 0.4 0.8  0.5 0.4 0.8  0.6 0.4 0.8  0.7 0.4 0.8  0.8 0.4 0.8  0.9 0.4 0.8  1 0.4 0.8  0.1 0.5 0.8  0 0.5 0.8  0.2 0.5 0.8  0.3 0.5 0.8  0.4 0.5 0.8  0.5 0.5 0.8  0.6 0.5 0.8  0.7 0.5 0.8  0.8 0.5 0.8  0.9 0.5 0.8  1 0.5 0.8  0.1 0.6 0.8  0 0.6 0.8  0.2 0.6 0.8  0.3 0.6 0.8  0.4 0.6 0.8  0.5 0.6 0.8  0.6 0.6 0.8  0.7 0.6 0.8  0.8 0.6 0.8  0.9 0.6 0.8  1 0.6 0.8  0.1 0.7 0.8  0 0.7 0.8  0.2 0.7 0.8  0.3 0.7 0.8  0.4 0.7 0.8  0.5 0.7 0.8  0.6 0.7 0.8  0.7 0.7 0.8  0.8 0.7 0.8  0.9 0.7 0.8  1 0.7 0.8  0.1 0.8 0.8  0 0.8 0.8  0.2 0.8 0.8  0.3 0.8 0.8  0.4 0.8 0.8  </DataArray>
</Points>
<Cells>
[...]
<PointData  Vectors="f_23"> 
<DataArray  type="Float64"  Name="f_23"  NumberOfComponents="3" format="ascii">1.9529795507128446e-03 2.7023260545330178e-04 2.0408470971661975e-04  1.8705989920801886e-03 2.9216085962019075e-04 2.4513702853556305e-04  1.8983461986801951e-03 2.3066629747908212e-04 1.9677813813066087e-04  1.3209393958788770e-01 3.9911659131486017e-04 5.6943885760006173e-04  1.9681319988380346e-03 2.5641069049221966e-04 2.8534875198432831e-04  2.0377254366267749e-03 2.1429937890624087e-04 2.3068214542241398e-04  1.9810501975755525e-03 1.9470360478963939e-04 1.4899886952275532e-04  1.3388770944947170e-01 2.6590195521966853e-04 3.8352664265826918e-04  1.7456977468895526e-03 3.4782385218224494e-04 3.4427716130952838e-04  1.7659494020750822e-03 3.0015996895301758e-04 2.8437475423922657e-04  1.3103672699810007e-01 7.0573828086239966e-04 7.9686957352869444e-04  1.8899338407372800e-03 3.2478460379723118e-04 4.4264749100566495e-04  1.4338398306527032e-03 3.1419963018398733e-04 4.4721487853741559e-04  1.4796666919097239e-03 2.8270335053907317e-04 3.7157991255623232e-04  1.3081531269257110e-01 6.2509224091784996e-04 7.5367657279605733e-04  1.6484798728114262e-03 3.0068468250577191e-04 6.0657905709431213e-04  8.7834456089377715e-04 2.2362071076158953e-04 5.7315862793230234e-04  9.7378008861474536e-04 2.0829947249224984e-04 4.7387668100989916e-04  1.3065350149640542e-01 4.7443479547868377e-04 6.1855250900520276e-04  1.1716592585848968e-03 2.0702573441551181e-04 8.0561536188976260e-04  3.9526415933056322e-05 1.1273722820815839e-04 7.1088628843163110e-04  2.0209726383430283e-04 1.0927644092983743e-04 5.9195224024954343e-04  1.3060862300594242e-01 3.5450852709246572e-04 4.5620026233155912e-04  3.7284773218502272e-04 8.2963402383023519e-05 1.0436764944534856e-03  -1.0218951338052131e-03 1.5386594303598617e-05 7.8586262431193930e-04  -8.0190292281018846e-04 1.5290606877042866e-05 6.7232665487975177e-04  1.3063372375987967e-01 2.8722777611042845e-04 2.8889886792397818e-04  -7.5433717306218036e-04 -2.4772001879685558e-05 1.2403657633498805e-03  -2.0798056526677208e-03 -5.6229486189840747e-05 6.8296648870449996e-04  -1.8518816670309861e-03 -5.5123292229949712e-05 6.1505729085885720e-04  1.3065830827419650e-01 2.0240913357526992e-04 1.4152858987495347e-04  -2.0030110437648761e-03 -8.1124560630618743e-05 1.2066677815901511e-03  -2.8008316953456415e-03 -1.0412722294835323e-04 3.9535358873560273e-04  -2.6251797505211921e-03 -9.3602564973273327e-05 3.8323319768768574e-04  1.3066932999965478e-01 2.1676839058777824e-05 1.4886388802872106e-04  -2.9623796543357195e-03 -1.0705188712974575e-04 7.9299027464131363e-04  -3.1126848903361578e-03 -3.1763796167060150e-05 1.4560844173563291e-04  -2.9974233865367596e-03 -5.6558682412474215e-05 1.6257098042233412e-04  1.3071275736304086e-01 -2.6632417111633672e-04 3.5563277789819636e-04  -3.3624489007596792e-03 -4.8123460475879967e-05 3.1895136285113335e-04  -3.2067593820121094e-03 -8.6974366551332484e-05 2.2357610764408030e-04  -3.0881842438373647e-03 -8.7677241364493070e-05 1.8687603481168960e-04  1.3038412222631282e-01 -8.8132129848535166e-05 3.7556004368878917e-04  -3.4111237383002342e-03 -1.1542496894166532e-04 3.6213792798230510e-04  2.0116433993958177e-03 1.5340664528020218e-04 1.4812321400087445e-04  1.6370344151261235e-01 2.2244725813061367e-04 6.0240411425004504e-04  2.1269908040671697e-03 1.3550271300685491e-04 1.1163994452220895e-04  1.6544679367881246e-01 1.2623469938565092e-03 3.1196073644037370e-04  1.7918220429732033e-03 2.1466790405493490e-04 2.2672071518101190e-04  1.6262989689840313e-01 4.4058644842340840e-04 1.0157372991905992e-03  1.4448413820472793e-03 2.1089531271532668e-04 3.0839052034199792e-04  1.6247230233132007e-01 4.0699324448487589e-04 8.8124659567534219e-04  9.0546585126581895e-04 1.5383502853511568e-04 4.0924342451952055e-04  1.6252274822802298e-01 2.8935438109007190e-04 6.0268273991842243e-04  1.2980025465080271e-04 7.4365944956075340e-05 5.2762174048368851e-04  1.6275329565648655e-01 2.4014717390224860e-04 3.5835651227707769e-04  -8.5703540745733330e-04 2.8103750433479434e-06 6.1076599257836053e-04  1.6303201230845057e-01 2.6466807786347524e-04 2.0446650767907382e-04  -1.8863885411780983e-03 -4.2684639648150324e-05 5.6735673867386988e-04  1.6321108484943014e-01 2.3697231619878239e-04 1.2524439089466751e-04  -2.6306143485534880e-03 -6.2979625531903437e-05 3.5868246289957819e-04  1.6331773484888928e-01 6.0167584042698923e-07 1.3077396444676113e-04  -2.9290314156384025e-03 -5.0575213994413528e-05 1.5119214833973237e-04  1.6352384905808798e-01 -4.5722998326841186e-04 1.8657273770590236e-04  -2.9617998349605380e-03 -7.1388468780566423e-05 1.7702400945625128e-04  1.6286634595450586e-01 1.1486701589185605e-04 6.5351471795277208e-05  2.0963968279151019e-03 1.1563537279906530e-04 1.1395508033829404e-04  1.6977828582463009e-01 2.6115485052311942e-04 9.5075812638283780e-04  2.2318127763661486e-03 8.9854911157181237e-05 7.5947102125167206e-05  1.7148769349910706e-01 1.1802906804994474e-03 6.7683930708220877e-04  1.8232992174102771e-03 1.7664791567828506e-04 1.8163424269135344e-04  1.6867329749830989e-01 1.6913945879636695e-04 1.4379474830233086e-03  1.4230610505275108e-03 1.8823405288013239e-04 2.6459148277599133e-04  1.6855463752569141e-01 5.2200339614948165e-05 1.2373724829026211e-03  8.4719504189953920e-04 1.5313163796966270e-04 3.6654368460408608e-04  1.6866098642062718e-01 -7.8369101135052706e-05 7.5815682042596573e-04  6.5502219036838347e-05 9.5287615404234311e-05 4.8728009132869009e-04  1.6902598627570689e-01 -9.6268898454150210e-05 3.9353445962356633e-04  -9.0230824975329400e-04 4.6082161547926563e-05 5.7183582157346424e-04  1.6942373408765943e-01 -7.4577877141352213e-06 2.3009652059857445e-04  -1.9100767923040977e-03 2.5145846309157215e-05 5.3608681261995306e-04  1.6961507157412989e-01 4.8763480349112741e-05 1.8875095861607954e-04  -2.6397146536331082e-03 2.0087079527678669e-05 3.4142424208053515e-04  1.6966515260740025e-01 -1.2245476465240374e-04 1.6931808397387934e-04  -2.8967700150230469e-03 -1.3064398884117109e-05 1.4660283012584845e-04  1.6993132307668399e-01 -6.2218993958866467e-04 6.1020089440034421e-05  -2.9166735961504578e-03 -4.2524290298014011e-06 1.7705703001192087e-04  1.6946693454367834e-01 7.6855021833320967e-05 8.0474204670632265e-05  2.1656394052414719e-03 7.9700799077745907e-05 1.0686324168729254e-04  1.6353191221713190e-01 -1.5514308592740907e-04 1.2308266305328002e-03  2.3054171438863088e-03 3.2816159140802606e-05 7.3929954869890707e-05  1.6508924865333144e-01 3.5805252714404595e-04 1.0881718998033022e-03  1.8674577505272041e-03 1.3816705650262234e-04 1.7198304252134014e-04  1.6229663451881848e-01 -2.0536869837272273e-04 1.7766648103194971e-03  1.4307713615086903e-03 1.7041905976809506e-04 2.5565251485826625e-04  1.6207682832105688e-01 -3.1531931144998884e-04 1.5201973039386280e-03  8.2185399469175756e-04 1.6643693312717330e-04 3.5133145738872100e-04  1.6212177375249498e-01 -4.0557301219587414e-04 8.6545280502691184e-04  3.0820243765039105e-05 1.3639361992631198e-04 4.6500006396775479e-04  1.6250068579375532e-01 -3.7566875625277710e-04 3.9989261029258041e-04  -9.2226002657891501e-04 1.0827697508152495e-04 5.4437595737043612e-04  1.6290665321808004e-01 -2.4575464886335816e-04 2.2022964335573764e-04  -1.9142228720676138e-03 1.0281308255747336e-04 5.1285530194281981e-04  1.6303436793851719e-01 -1.1905102516694059e-04 1.8614667751975727e-04  -2.6539233077104017e-03 1.0615293968172613e-04 3.3061366862296440e-04  1.6297211504068421e-01 -1.7596768317754976e-04 1.3841786721547882e-04  -2.9180473141423840e-03 3.3803036185597909e-05 1.4658732524032732e-04  1.6329551092605019e-01 -7.7048771689599833e-04 -1.2742169282799440e-04  -2.9605218168983582e-03 6.8458672131325261e-05 1.6668536447951181e-04  1.6327007166475802e-01 -1.3095330078178899e-04 -8.0767802225091642e-06  2.2436058181013988e-03 2.3342014506803227e-05 1.1308099066205325e-04  1.3167157411106364e-01 -7.0561871955533012e-04 1.0960755239922135e-03  2.3686436993950589e-03 -1.2753730712743226e-06 9.0323877138678119e-05  1.3330353063360181e-01 -4.7332307107036237e-04 1.2109365404456539e-03  1.9462534608323293e-03 7.4576024631497280e-05 1.8981582775197975e-04  1.3020670258163214e-01 -4.3001039843542694e-04 1.4958686503165775e-03  1.4872282675688080e-03 1.2610797775431887e-04 2.8056494903380328e-04  1.2990020817003917e-01 -3.6683259396231665e-04 1.2651826113954782e-03  8.5629376620941020e-04 1.5483150621418320e-04 3.7111060019626532e-04  1.2983954933294845e-01 -3.3594636559626349e-04 6.9529063656805380e-04  5.9469131929044115e-05 1.5823146470990063e-04 4.7329634789462896e-04  1.3008348635791736e-01 -2.6479761770961213e-04 3.0064265929301553e-04  -8.8439948346233539e-04 1.5297822229350686e-04 5.4564026149351598e-04  1.3031728200148499e-01 -1.6218804790571530e-04 1.6866258095464155e-04  -1.8795167767082371e-03 1.5456632311069602e-04 5.2221113017579513e-04  1.3021733209501626e-01 -5.6272254183746770e-05 1.6149839154306933e-04  -2.6649163937293302e-03 1.5554483102424101e-04 3.5956486427622946e-04  1.2976377277530393e-01 7.1716179907073016e-06 9.2819296208427612e-05  -2.9765588443136791e-03 1.0191984080673234e-04 1.6091640017120513e-04  1.2996131665983929e-01 -3.0910698766216632e-04 -2.7975726177844039e-04  -3.0434304017739463e-03 8.6657273184793018e-05 1.6003037679763909e-04  1.3088040483610902e-01 -6.3272274863849175e-04 -1.3227265889375638e-04  2.3197732101166977e-03 1.6720752614317123e-05 6.9190573747392444e-05  2.3583131740489839e-03 1.2748880780854640e-05 8.8369069240050170e-05  2.3911671566943632e-03 -2.0220122723123611e-05 5.4790142277299197e-05  2.4204262250194916e-03 -1.8840725923097015e-06 7.0481646049583275e-05  2.1046752363753120e-03 7.9257835882945736e-05 1.1819733229809363e-04  2.1807459011925611e-03 1.8043573870298625e-05 1.8286235274727410e-04  1.7067568389530368e-03 1.4088436012401492e-04 2.0150302324932685e-04  1.8562658428374695e-03 7.0239179640530197e-05 2.8180668674867090e-04  1.1375920016992900e-03 1.8413328377193933e-04 2.8767381475128197e-04  1.3592941220756972e-03 1.1206869771638345e-04 3.8561968159601218e-04  4.0287522970505936e-04 1.9881214697483980e-04 3.8012355628336459e-04  6.9669512220152342e-04 1.2827724946278232e-04 4.9259430422452454e-04  -4.8553250634123288e-04 1.9623007938481010e-04 4.4717624555684393e-04  -1.1942453523972137e-04 1.2947747254543415e-04 5.7974707679640607e-04  -1.4808799383753545e-03 1.9166659765931137e-04 4.4966788284721840e-04  -1.0836488039028113e-03 1.3200165754844627e-04 6.1244738955162448e-04  -2.4022475952251124e-03 1.7439724935082213e-04 3.5591753007253846e-04  -2.0678452994149108e-03 1.3624979436099193e-04 5.3311697988014234e-04  -2.9418816534062839e-03 1.4415275350237615e-04 1.8461460802725321e-04  -2.7487133899775037e-03 1.1774063443560120e-04 3.2200891834421240e-04  -3.1166246724482821e-03 8.0232809703650713e-05 1.9036392184452173e-04  -2.9908099386299876e-03 1.3385618596244327e-04 2.0194597444307460e-04  1.6379960017157960e-01 3.6457818553810751e-04 4.8136390860182285e-04  2.1831742351982892e-03 1.9190269796201431e-04 3.3678970683661787e-04  2.2653771374108707e-03 1.5997329707224809e-04 2.6243899874873886e-04  1.6562078442665470e-01 5.0144164653264086e-05 1.2484588356176589e-03  1.6270347738124055e-01 9.1627367971821661e-04 5.8857791158101441e-04  2.0915462386023069e-03 2.4503684624394657e-04 5.6416421273441616e-04  1.6256977404851264e-01 7.9068618901175218e-04 5.5045567079383187e-04  1.8806348660412909e-03 2.0951759922131040e-04 8.1084327804874972e-04  1.6259193860445906e-01 5.5916088965505032e-04 4.0501688594446001e-04  1.4599839512617499e-03 1.0138463812291062e-04 1.1146613306468824e-03  1.6278754378193638e-01 4.4516952838843834e-04 2.4182116050566643e-04  6.8287337321057179e-04 -5.3173363465832478e-05 1.5130236993017765e-03  1.6310255171656868e-01 4.9779406464083313e-04 3.8925866199415001e-05  -5.7601072373784728e-04 -2.0514303122001645e-04 1.9648972671485218e-03  1.6352192425783901e-01 5.6789290220055023e-04 -2.3889137764034608e-04  -2.1928979453713633e-03 -2.5327931028917112e-04 2.1961927454424387e-03  1.6406706207498414e-01 4.2106578088670071e-04 -3.1900235226949220e-04  -3.5461984069478200e-03 -1.8926631168453490e-04 1.6727174247719908e-03  1.6455858159983239e-01 8.6832246049935036e-06 4.8693911667511587e-05  -4.1407975436616564e-03 -8.7104535214528185e-05 6.9609974480542517e-04  1.6536882690884225e-01 -3.4102040617526864e-04 -1.1554645533518536e-03  -4.2097603618507680e-03 -1.2814541569717175e-04 7.5200657035684113e-04  2.1070574177081922e-01 2.7921560781615199e-04 6.0143233689723802e-04  2.1124724983096022e-01 1.6509183046867571e-03 1.7474904223808865e-03  2.0979331774906987e-01 7.6092846354689869e-04 8.6256453494084088e-04  2.0966541362502428e-01 6.6952008740958841e-04 6.7697058171046186e-04  2.1003801639142566e-01 4.1549159106299020e-04 2.8524844601212327e-04  2.1076044464595531e-01 4.0199896217504394e-04 2.9238560937743808e-05  2.1160202890722007e-01 6.3436221586556725e-04 -7.9288958917852299e-05  2.1238380392719064e-01 8.4211807788626785e-04 -1.6322699314512342e-04  2.1311873395015718e-01 6.3540563603199586e-04 -9.8857541181411146e-05  2.1400835768862222e-01 -2.3516216492355438e-04 1.9424802089822833e-04  2.1467700198503695e-01 2.4587351283129780e-04 -9.3146713319673061e-04  2.2042127325624791e-01 4.9501128698370487e-04 1.1308430491616993e-03  2.2040574117866638e-01 1.7534404521968600e-03 2.7050239569446511e-03  2.1963263232305705e-01 3.8961148808613379e-04 1.4983080293047494e-03  2.1947629556711082e-01 1.1528937395696895e-04 1.1612223520946110e-03  2.1992119891994089e-01 -2.1371136822162908e-04 3.4167372193053084e-04  2.2094616262221187e-01 -1.9962649781601039e-04 -3.5099569942397162e-05  2.2207306018452996e-01 1.2110088952852759e-04 1.5166590221065403e-06  2.2293828042823613e-01 4.0438371396625241e-04 1.4284015790542366e-04  2.2355481242573624e-01 2.4675549968080138e-04 3.4169237450516602e-04  2.2436697291461358e-01 -6.9160241791394112e-04 4.4800450205041904e-04  2.2525675705474346e-01 1.1756296098381725e-05 -3.0651183377574331e-04  2.1071522303440385e-01 1.8217639740437446e-05 1.7944289882267791e-03  2.1028625439902748e-01 7.5068648294281896e-04 3.5710567009090586e-03  2.0980095553261158e-01 -1.4028436586983753e-04 2.1663131783240912e-03  2.0937244606251948e-01 -4.9606682464078608e-04 1.6423325823539019e-03  2.0967299824085545e-01 -7.8051769096333559e-04 3.1941789366139966e-04  2.1077073738603183e-01 -7.0481033959873818e-04 -1.4115950435524482e-04  2.1193031424152164e-01 -3.7879795228418786e-04 3.0078672434426384e-05  2.1266431675780512e-01 -9.9051653803677441e-05 3.0368868449081059e-04  2.1300522453316131e-01 -1.7533602599617283e-04 4.6088629824643425e-04  2.1363789568929983e-01 -1.2004689973678700e-03 3.4772098728968456e-04  2.1481361226352522e-01 -5.0597743873483992e-04 -5.5869953983723740e-05  1.6413515073509363e-01 -6.2351619344498514e-04 1.5157790885464042e-03  1.6389881807280382e-01 -3.1611662102449373e-04 3.5753916137928055e-03  1.6288345574057345e-01 -4.8997074306023525e-04 1.8753588763465983e-03  1.6219754107830883e-01 -6.8325362286173754e-04 1.3901933159863656e-03  1.6220751745622780e-01 -8.0328684483913957e-04 5.6615291576023802e-05  1.6303796506035745e-01 -6.6650927521958879e-04 -3.4925053786353150e-04  1.6386741694521245e-01 -4.0537130123128115e-04 -1.1596445794183147e-04  1.6417814340541190e-01 -1.9880103156144627e-04 2.0035624019967653e-04  1.6385263593836485e-01 -1.2502286078234297e-04 3.3054482977450968e-04  1.6406886481371832e-01 -6.6219094099062039e-04 6.4848071298974998e-05  1.6602635799923782e-01 -1.1553108469771628e-03 -7.2442381303562566e-07  2.4692996400706149e-03 -1.0666095110009963e-05 7.7710106747032396e-05  2.5438245826106586e-03 -2.0171941750971511e-05 9.0117465196792632e-05  2.2679424123463266e-03 -4.0437481023838467e-06 2.0358251952884950e-04  1.9593115077257157e-03 3.2282787948555612e-05 3.3696175090256706e-04  1.4778142867052447e-03 7.2286121054304431e-05 4.5890692798245377e-04  8.3945133001219147e-04 8.1164657713918075e-05 6.1704456942587524e-04  5.3048536330699129e-05 7.7770226115732064e-05 7.7746749470038374e-04  -9.7368067634077938e-04 7.9870541024581261e-05 9.2059578821342863e-04  -2.1361690623665614e-03 9.3008586200664942e-05 9.2215666788286125e-04  -3.0143048456382562e-03 9.5285247037453814e-05 6.5905341738010828e-04  -3.2728130019263856e-03 1.3618236779585046e-04 4.6877626434699298e-04  1.6998927829639127e-01 7.5025813079742428e-04 4.8302805898657743e-04  2.4236217456319363e-03 1.3342439185308241e-04 3.2565406356144380e-04  2.5058012553705396e-03 1.0302380155020682e-04 2.3769142890839507e-04  1.7179064336134803e-01 4.4300199007064184e-04 1.1694617384568713e-03  1.6884675559046641e-01 1.3886179002327238e-03 3.4801586572391163e-04  2.3349093844654408e-03 1.6592770346303550e-04 5.6578841925944705e-04  1.6875280111944210e-01 1.2277708367800597e-03 2.3412011986206061e-04  2.1725616666941113e-03 1.2748730851615226e-04 8.2382810179531109e-04  1.6880678896150694e-01 8.4469958601450523e-04 1.0031944944277615e-04  1.8544177772679253e-03 1.4756971502863917e-05 1.1473687321373457e-03  1.6911110682076474e-01 7.0341611267730564e-04 6.4555940278850106e-06  1.2092539616400161e-03 -1.6436392243441935e-04 1.6155166869384618e-03  1.6960662733103632e-01 9.4771149441793255e-04 -1.7287767006341772e-04  -6.2179262402702637e-05 -4.0053268844170614e-04 2.3076133166191289e-03  1.7031349104101898e-01 1.4673824818369340e-03 -7.6750176867421214e-04  -2.1793440625454560e-03 -5.7543451515618485e-04 3.1240848643298738e-03  1.7131914244763208e-01 1.7196263169538505e-03 -1.8434642911247850e-03  -4.3699936606537209e-03 -4.2137851296805294e-04 3.2656973452378558e-03  1.7240382733823825e-01 1.5948487437687819e-03 -2.4891019003182146e-03  -5.5135684961530526e-03 -1.8727312184959455e-04 1.3506821459086066e-03  1.7432845718824599e-01 1.4251341164569424e-03 -6.0468809035196785e-03  -5.9382776103418305e-03 -1.4834696253315230e-04 1.5790827189607697e-03  2.2053543540154430e-01 8.4526855214824589e-04 7.5656931277917302e-04  2.2053052495620007e-01 2.6251743521299442e-03 1.8062685804797677e-03  2.1973108132412075e-01 1.4656417886597234e-03 5.0832439723806481e-04  2.1956780145366800e-01 1.2706570636347866e-03 1.4103351534641852e-04  2.1999769398122537e-01 6.5500201132059899e-04 -2.9712522576283478e-04  2.2104806847693578e-01 6.2197880322700360e-04 -4.5713412884902459e-04  2.2237938944699837e-01 1.1820557574896255e-03 -4.3146929967263602e-04  2.2382313898012884e-01 1.9478048304202020e-03 -6.6596089423606839e-04  2.2538336326358027e-01 2.3159620294793417e-03 -1.3750710926316518e-03  2.2770280868709705e-01 1.4334786858354123e-03 -1.7658406380297003e-03  2.3053499591283524e-01 2.4006071794330720e-03 -4.7656961203408985e-03  2.3131836002914882e-01 1.2369790473902630e-03 1.4911165703768098e-03  2.3018686578017544e-01 2.9710510879633165e-03 3.0247059458012827e-03  2.3084210043456690e-01 1.0289238881987072e-03 1.1147525142014001e-03  2.3042246551949336e-01 4.6150655705132844e-04 4.2453788527789901e-04  2.3084838397937385e-01 -4.8956390298466972e-04 -6.6488197147470209e-04  2.3256052649961623e-01 -4.7390618280000740e-04 -8.3223936466053302e-04  2.3445480663390511e-01 2.6201832490489036e-04 -3.5799316960892052e-04  2.3618542606555770e-01 9.9477776375158289e-04 -2.7384456687126328e-05  2.3778476166787635e-01 1.1232279618372293e-03 -1.4497043735021682e-04  2.4004565252347035e-01 2.3031215364233849e-05 -3.5229502500898818e-04  2.4318285174871992e-01 1.1100527840023956e-03 -2.3659593042819221e-03  2.2066804787040989e-01 4.9255953986907278e-04 2.5163740153639415e-03  2.1855284035484010e-01 1.7229161247688434e-03 4.2505133761295581e-03  2.2009541250032896e-01 9.0108790523774261e-05 2.3943048314040778e-03  2.1926354791237518e-01 -7.6423085218322738e-04 7.6362327707824734e-04  2.1934356453081560e-01 -1.6744480041734474e-03 -1.4127043390499609e-03  2.2161076801883564e-01 -1.4288101251646503e-03 -1.3315408426842540e-03  2.2365936450070126e-01 -6.100