<?xml version="1.0"?>
<VTKFile type="UnstructuredGrid"  version="0.1"  >
<UnstructuredGrid>
<Piece  NumberOfPoints="539" NumberOfCells="2160">
<Points>
<DataArray  type="Float64"  NumberOfComponents="3"  format="ascii">0 0.2 0.2  0.1 0.2 0.2  0.1 0.3 0.2  0.1 0.3 0.3  0.1 0.2 0.3  0 0.2 0.3  0 0.3 0.2  0 0.3 0.3  0.2 0.2 0.2  0.2 0.3 0.2  0.2 0.3 0.3  0.2 0.2 0.3  0.3 0.2 0.2  0.3 0.3 0.2  0.3 0.3 0.3  0.3 0.2 0.3  0.4 0.2 0.2  0.4 0.3 0.2  0.4 0.3 0.3  0.4 0.2 0.3  0.5 0.2 0.2  0.5 0.3 0.2  0.5 0.3 0.3  0.5 0.2 0.3  0.6 0.2 0.2  0.6 0.3 0.2  0.6 0.3 0.3  0.6 0.2 0.3  0.7 0.2 0.2  0.7 0.3 0.2  0.7 0.3 0.3  0.7 0.2 0.3  0.8 0.2 0.2  0.8 0.3 0.2  0.8 0.3 0.3  0.8 0.2 0.3  0.9 0.2 0.2  0.9 0.3 0.2  0.9 0.3 0.3  0.9 0.2 0.3  1 0.2 0.2  1 0.3 0.2  1 0.3 0.3  1 0.2 0.3  0.1 0.4 0.2  0.1 0.4 0.3  0 0.4 0.2  0 0.4 0.3  0.2 0.4 0.2  0.2 0.4 0.3  0.3 0.4 0.2  0.3 0.4 0.3  0.4 0.4 0.2  0.4 0.4 0.3  0.5 0.4 0.2  0.5 0.4 0.3  0.6 0.4 0.2  0.6 0.4 0.3  0.7 0.4 0.2  0.7 0.4 0.3  0.8 0.4 0.2  0.8 0.4 0.3  0.9 0.4 0.2  0.9 0.4 0.3  1 0.4 0.2  1 0.4 0.3  0.1 0.5 0.2  0.1 0.5 0.3  0 0.5 0.2  0 0.5 0.3  0.2 0.5 0.2  0.2 0.5 0.3  0.3 0.5 0.2  0.3 0.5 0.3  0.4 0.5 0.2  0.4 0.5 0.3  0.5 0.5 0.2  0.5 0.5 0.3  0.6 0.5 0.2  0.6 0.5 0.3  0.7 0.5 0.2  0.7 0.5 0.3  0.8 0.5 0.2  0.8 0.5 0.3  0.9 0.5 0.2  0.9 0.5 0.3  1 0.5 0.2  1 0.5 0.3  0.1 0.6 0.2  0.1 0.6 0.3  0 0.6 0.2  0 0.6 0.3  0.2 0.6 0.2  0.2 0.6 0.3  0.3 0.6 0.2  0.3 0.6 0.3  0.4 0.6 0.2  0.4 0.6 0.3  0.5 0.6 0.2  0.5 0.6 0.3  0.6 0.6 0.2  0.6 0.6 0.3  0.7 0.6 0.2  0.7 0.6 0.3  0.8 0.6 0.2  0.8 0.6 0.3  0.9 0.6 0.2  0.9 0.6 0.3  1 0.6 0.2  1 0.6 0.3  0.1 0.7 0.2  0.1 0.7 0.3  0 0.7 0.2  0 0.7 0.3  0.2 0.7 0.2  0.2 0.7 0.3  0.3 0.7 0.2  0.3 0.7 0.3  0.4 0.7 0.2  0.4 0.7 0.3  0.5 0.7 0.2  0.5 0.7 0.3  0.6 0.7 0.2  0.6 0.7 0.3  0.7 0.7 0.2  0.7 0.7 0.3  0.8 0.7 0.2  0.8 0.7 0.3  0.9 0.7 0.2  0.9 0.7 0.3  1 0.7 0.2  1 0.7 0.3  0.1 0.8 0.2  0.1 0.8 0.3  0 0.8 0.2  0 0.8 0.3  0.2 0.8 0.2  0.2 0.8 0.3  0.3 0.8 0.2  0.3 0.8 0.3  0.4 0.8 0.2  0.4 0.8 0.3  0.5 0.8 0.2  0.5 0.8 0.3  0.6 0.8 0.2  0.6 0.8 0.3  0.7 0.8 0.2  0.7 0.8 0.3  0.8 0.8 0.2  0.8 0.8 0.3  0.9 0.8 0.2  0.9 0.8 0.3  1 0.8 0.2  1 0.8 0.3  0.1 0.3 0.4  0.1 0.2 0.4  0 0.2 0.4  0 0.3 0.4  0.2 0.3 0.4  0.2 0.2 0.4  0.3 0.3 0.4  0.3 0.2 0.4  0.4 0.3 0.4  0.4 0.2 0.4  0.5 0.3 0.4  0.5 0.2 0.4  0.6 0.3 0.4  0.6 0.2 0.4  0.7 0.3 0.4  0.7 0.2 0.4  0.8 0.3 0.4  0.8 0.2 0.4  0.9 0.3 0.4  0.9 0.2 0.4  1 0.3 0.4  1 0.2 0.4  0.1 0.4 0.4  0 0.4 0.4  0.2 0.4 0.4  0.3 0.4 0.4  0.4 0.4 0.4  0.5 0.4 0.4  0.6 0.4 0.4  0.7 0.4 0.4  0.8 0.4 0.4  0.9 0.4 0.4  1 0.4 0.4  0.1 0.5 0.4  0 0.5 0.4  0.2 0.5 0.4  0.3 0.5 0.4  0.4 0.5 0.4  0.5 0.5 0.4  0.6 0.5 0.4  0.7 0.5 0.4  0.8 0.5 0.4  0.9 0.5 0.4  1 0.5 0.4  0.1 0.6 0.4  0 0.6 0.4  0.2 0.6 0.4  0.3 0.6 0.4  0.4 0.6 0.4  0.5 0.6 0.4  0.6 0.6 0.4  0.7 0.6 0.4  0.8 0.6 0.4  0.9 0.6 0.4  1 0.6 0.4  0.1 0.7 0.4  0 0.7 0.4  0.2 0.7 0.4  0.3 0.7 0.4  0.4 0.7 0.4  0.5 0.7 0.4  0.6 0.7 0.4  0.7 0.7 0.4  0.8 0.7 0.4  0.9 0.7 0.4  1 0.7 0.4  0.1 0.8 0.4  0 0.8 0.4  0.2 0.8 0.4  0.3 0.8 0.4  0.4 0.8 0.4  0.5 0.8 0.4  0.6 0.8 0.4  0.7 0.8 0.4  0.8 0.8 0.4  0.9 0.8 0.4  1 0.8 0.4  0.1 0.3 0.5  0.1 0.2 0.5  0 0.2 0.5  0 0.3 0.5  0.2 0.3 0.5  0.2 0.2 0.5  0.3 0.3 0.5  0.3 0.2 0.5  0.4 0.3 0.5  0.4 0.2 0.5  0.5 0.3 0.5  0.5 0.2 0.5  0.6 0.3 0.5  0.6 0.2 0.5  0.7 0.3 0.5  0.7 0.2 0.5  0.8 0.3 0.5  0.8 0.2 0.5  0.9 0.3 0.5  0.9 0.2 0.5  1 0.3 0.5  1 0.2 0.5  0.1 0.4 0.5  0 0.4 0.5  0.2 0.4 0.5  0.3 0.4 0.5  0.4 0.4 0.5  0.5 0.4 0.5  0.6 0.4 0.5  0.7 0.4 0.5  0.8 0.4 0.5  0.9 0.4 0.5  1 0.4 0.5  0.1 0.5 0.5  0 0.5 0.5  0.2 0.5 0.5  0.3 0.5 0.5  0.4 0.5 0.5  0.5 0.5 0.5  0.6 0.5 0.5  0.7 0.5 0.5  0.8 0.5 0.5  0.9 0.5 0.5  1 0.5 0.5  0.1 0.6 0.5  0 0.6 0.5  0.2 0.6 0.5  0.3 0.6 0.5  0.4 0.6 0.5  0.5 0.6 0.5  0.6 0.6 0.5  0.7 0.6 0.5  0.8 0.6 0.5  0.9 0.6 0.5  1 0.6 0.5  0.1 0.7 0.5  0 0.7 0.5  0.2 0.7 0.5  0.3 0.7 0.5  0.4 0.7 0.5  0.5 0.7 0.5  0.6 0.7 0.5  0.7 0.7 0.5  0.8 0.7 0.5  0.9 0.7 0.5  1 0.7 0.5  0.1 0.8 0.5  0 0.8 0.5  0.2 0.8 0.5  0.3 0.8 0.5  0.4 0.8 0.5  0.5 0.8 0.5  0.6 0.8 0.5  0.7 0.8 0.5  0.8 0.8 0.5  0.9 0.8 0.5  1 0.8 0.5  0.1 0.3 0.6  0.1 0.2 0.6  0 0.2 0.6  0 0.3 0.6  0.2 0.3 0.6  0.2 0.2 0.6  0.3 0.3 0.6  0.3 0.2 0.6  0.4 0.3 0.6  0.4 0.2 0.6  0.5 0.3 0.6  0.5 0.2 0.6  0.6 0.3 0.6  0.6 0.2 0.6  0.7 0.3 0.6  0.7 0.2 0.6  0.8 0.3 0.6  0.8 0.2 0.6  0.9 0.3 0.6  0.9 0.2 0.6  1 0.3 0.6  1 0.2 0.6  0.1 0.4 0.6  0 0.4 0.6  0.2 0.4 0.6  0.3 0.4 0.6  0.4 0.4 0.6  0.5 0.4 0.6  0.6 0.4 0.6  0.7 0.4 0.6  0.8 0.4 0.6  0.9 0.4 0.6  1 0.4 0.6  0.1 0.5 0.6  0 0.5 0.6  0.2 0.5 0.6  0.3 0.5 0.6  0.4 0.5 0.6  0.5 0.5 0.6  0.6 0.5 0.6  0.7 0.5 0.6  0.8 0.5 0.6  0.9 0.5 0.6  1 0.5 0.6  0.1 0.6 0.6  0 0.6 0.6  0.2 0.6 0.6  0.3 0.6 0.6  0.4 0.6 0.6  0.5 0.6 0.6  0.6 0.6 0.6  0.7 0.6 0.6  0.8 0.6 0.6  0.9 0.6 0.6  1 0.6 0.6  0.1 0.7 0.6  0 0.7 0.6  0.2 0.7 0.6  0.3 0.7 0.6  0.4 0.7 0.6  0.5 0.7 0.6  0.6 0.7 0.6  0.7 0.7 0.6  0.8 0.7 0.6  0.9 0.7 0.6  1 0.7 0.6  0.1 0.8 0.6  0 0.8 0.6  0.2 0.8 0.6  0.3 0.8 0.6  0.4 0.8 0.6  0.5 0.8 0.6  0.6 0.8 0.6  0.7 0.8 0.6  0.8 0.8 0.6  0.9 0.8 0.6  1 0.8 0.6  0.1 0.3 0.7  0.1 0.2 0.7  0 0.2 0.7  0 0.3 0.7  0.2 0.3 0.7  0.2 0.2 0.7  0.3 0.3 0.7  0.3 0.2 0.7  0.4 0.3 0.7  0.4 0.2 0.7  0.5 0.3 0.7  0.5 0.2 0.7  0.6 0.3 0.7  0.6 0.2 0.7  0.7 0.3 0.7  0.7 0.2 0.7  0.8 0.3 0.7  0.8 0.2 0.7  0.9 0.3 0.7  0.9 0.2 0.7  1 0.3 0.7  1 0.2 0.7  0.1 0.4 0.7  0 0.4 0.7  0.2 0.4 0.7  0.3 0.4 0.7  0.4 0.4 0.7  0.5 0.4 0.7  0.6 0.4 0.7  0.7 0.4 0.7  0.8 0.4 0.7  0.9 0.4 0.7  1 0.4 0.7  0.1 0.5 0.7  0 0.5 0.7  0.2 0.5 0.7  0.3 0.5 0.7  0.4 0.5 0.7  0.5 0.5 0.7  0.6 0.5 0.7  0.7 0.5 0.7  0.8 0.5 0.7  0.9 0.5 0.7  1 0.5 0.7  0.1 0.6 0.7  0 0.6 0.7  0.2 0.6 0.7  0.3 0.6 0.7  0.4 0.6 0.7  0.5 0.6 0.7  0.6 0.6 0.7  0.7 0.6 0.7  0.8 0.6 0.7  0.9 0.6 0.7  1 0.6 0.7  0.1 0.7 0.7  0 0.7 0.7  0.2 0.7 0.7  0.3 0.7 0.7  0.4 0.7 0.7  0.5 0.7 0.7  0.6 0.7 0.7  0.7 0.7 0.7  0.8 0.7 0.7  0.9 0.7 0.7  1 0.7 0.7  0.1 0.8 0.7  0 0.8 0.7  0.2 0.8 0.7  0.3 0.8 0.7  0.4 0.8 0.7  0.5 0.8 0.7  0.6 0.8 0.7  0.7 0.8 0.7  0.8 0.8 0.7  0.9 0.8 0.7  1 0.8 0.7  0.1 0.3 0.8  0.1 0.2 0.8  0 0.2 0.8  0 0.3 0.8  0.2 0.3 0.8  0.2 0.2 0.8  0.3 0.3 0.8  0.3 0.2 0.8  0.4 0.3 0.8  0.4 0.2 0.8  0.5 0.3 0.8  0.5 0.2 0.8  0.6 0.3 0.8  0.6 0.2 0.8  0.7 0.3 0.8  0.7 0.2 0.8  0.8 0.3 0.8  0.8 0.2 0.8  0.9 0.3 0.8  0.9 0.2 0.8  1 0.3 0.8  1 0.2 0.8  0.1 0.4 0.8  0 0.4 0.8  0.2 0.4 0.8  0.3 0.4 0.8  0.4 0.4 0.8  0.5 0.4 0.8  0.6 0.4 0.8  0.7 0.4 0.8  0.8 0.4 0.8  0.9 0.4 0.8  1 0.4 0.8  0.1 0.5 0.8  0 0.5 0.8  0.2 0.5 0.8  0.3 0.5 0.8  0.4 0.5 0.8  0.5 0.5 0.8  0.6 0.5 0.8  0.7 0.5 0.8  0.8 0.5 0.8  0.9 0.5 0.8  1 0.5 0.8  0.1 0.6 0.8  0 0.6 0.8  0.2 0.6 0.8  0.3 0.6 0.8  0.4 0.6 0.8  0.5 0.6 0.8  0.6 0.6 0.8  0.7 0.6 0.8  0.8 0.6 0.8  0.9 0.6 0.8  1 0.6 0.8  0.1 0.7 0.8  0 0.7 0.8  0.2 0.7 0.8  0.3 0.7 0.8  0.4 0.7 0.8  0.5 0.7 0.8  0.6 0.7 0.8  0.7 0.7 0.8  0.8 0.7 0.8  0.9 0.7 0.8  1 0.7 0.8  0.1 0.8 0.8  0 0.8 0.8  0.2 0.8 0.8  0.3 0.8 0.8  0.4 0.8 0.8  0.5 0.8 0.8  0.6 0.8 0.8  0.7 0.8 0.8  0.8 0.8 0.8  0.9 0.8 0.8  1 0.8 0.8  </DataArray>
</Points>
<Cells>
[...]
<PointData  Vectors="f_25"> 
<DataArray  type="Float64"  Name="f_25"  NumberOfComponents="3" format="ascii">5.3630478366973903e-03 1.5207936503705163e-05 4.1186099182076620e-04  4.9311331823925567e-03 4.6137524182504703e-05 6.2319664536950731e-04  5.0447275213749334e-03 2.7150122768724416e-05 5.5361056298577134e-04  -6.8697060046206571e-02 3.2898441216483212e-05 3.6224322876654905e-04  5.3109897036046688e-03 5.5944944014756135e-05 6.2894434650802625e-04  5.6862232926933390e-03 3.1872679485754211e-05 4.4838077344390393e-04  5.3841858345042189e-03 1.4781577065200432e-05 3.8130519570707606e-04  -6.8348386590336749e-02 4.7527880488266621e-06 3.0280390643061089e-04  3.9468128619441602e-03 7.9013535435825178e-05 1.0194052428202558e-03  4.1763553276714296e-03 4.2855842120703352e-05 9.2385829756001694e-04  -6.9165217929470141e-02 1.2715694438788589e-04 7.3916007175169334e-04  4.4657613896311983e-03 9.4666048630369335e-05 1.0576004874163537e-03  2.3926639762722004e-03 1.0213100687114333e-04 1.4933038539262867e-03  2.7113986103203245e-03 4.6816516083329385e-05 1.3831970259205295e-03  -6.9810745156993106e-02 2.1321635752552610e-04 1.1735030950126633e-03  3.0372510557628773e-03 1.3214613933452198e-04 1.5614610608721904e-03  3.7306899789653640e-04 8.8193941803483536e-05 1.9889506104500730e-03  7.4758445947460488e-04 1.2067096756107749e-05 1.8702236165150299e-03  -7.0753458623540613e-02 2.5316928765240415e-04 1.6506604840757562e-03  1.0834193400433149e-03 1.3859306774687235e-04 2.1107888025309212e-03  -1.8737488398519809e-03 4.3297238140004917e-06 2.3945695652906294e-03  -1.5078034572155652e-03 -9.0361513884752294e-05 2.2806300269969312e-03  -7.2052130090677624e-02 1.9737397159602006e-04 2.1479594295523360e-03  -1.2238824766071100e-03 8.2305203707324045e-05 2.6143541777005033e-03  -3.8733549020848234e-03 -1.8581514522687502e-04 2.5440184186564705e-03  -3.6086822577349855e-03 -2.8770661674076207e-04 2.4547243910255606e-03  -7.3693887452245782e-02 -2.6144631311248198e-05 2.5417156451363085e-03  -3.4947206797060291e-03 -7.1034012073038720e-05 2.9226213508638968e-03  -4.9043814616850714e-03 -4.9329880500084038e-04 2.2434911461011735e-03  -4.8114274922217591e-03 -5.6864811269120548e-04 2.2091157166088476e-03  -7.5429253124259507e-02 -4.8495332994191948e-04 2.4730747941253549e-03  -5.0599197196578112e-03 -3.3813969995567263e-04 2.9736683400733680e-03  -4.5790503620194651e-03 -7.8140630508649243e-04 1.3046074034719479e-03  -4.4903718461652116e-03 -7.8375623534844021e-04 1.3914186870050023e-03  -7.6796477674820160e-02 -1.0675279981707461e-03 1.4569141072510296e-03  -5.2290417675330859e-03 -6.6290268744188211e-04 2.1509199993814550e-03  -3.8629835334609368e-03 -2.7569682170758687e-04 4.7062088942319605e-04  -3.5753780777351045e-03 -4.4664031981723053e-04 6.5429555369459391e-04  -7.6931971633547008e-02 -1.3474757515553031e-03 -1.9937286746689418e-04  -4.6447149942592013e-03 -2.9388047505908934e-04 7.0537544651916415e-04  -3.3282872923788643e-03 -8.2286625073399607e-04 5.4850614373741849e-04  -3.0238893409259564e-03 -7.5713746698009333e-04 6.8829966111287090e-04  -7.5789927325462830e-02 -1.1042807936332759e-03 5.2023412838702319e-04  -4.0164562990517962e-03 -6.8271729715428816e-04 7.8904229308039762e-04  5.0728266248930764e-03 2.6274852797627867e-05 5.5442617618343504e-04  -8.5427506909757159e-02 4.3431895487427555e-05 3.3265212607916080e-04  5.4068474435983137e-03 2.3722770060431570e-05 3.8831864016861714e-04  -8.5432326941281528e-02 1.6188245722947542e-05 2.7011647342688904e-04  4.2076402338896771e-03 3.7445716404990254e-05 9.3303796048501255e-04  -8.5689366833719291e-02 8.4399878193518397e-05 6.4920519465800546e-04  2.7262477388832382e-03 4.8377015984900450e-05 1.4055959984322201e-03  -8.6015966025167215e-02 1.1734081102392407e-04 1.0219257229743728e-03  7.1866723449335126e-04 4.4162909364003710e-05 1.9142328291090621e-03  -8.6534362994619168e-02 1.1082530556295284e-04 1.4200858555491927e-03  -1.6121623909709354e-03 -2.3637255394094620e-07 2.3518399628316066e-03  -8.7384973294059712e-02 2.8270977233513795e-05 1.8338239695204961e-03  -3.7961932111840800e-03 -1.1824012007437088e-04 2.5451946781758481e-03  -8.8723704162819689e-02 -1.6895467318656964e-04 2.1585563922477996e-03  -5.0229126768918109e-03 -3.1977367613297023e-04 2.2848222552358539e-03  -9.0562910125173673e-02 -4.7378757612639245e-04 2.0036283987724403e-03  -4.5016724072817699e-03 -5.2044155929702174e-04 1.4578133976064873e-03  -9.2663414266812752e-02 -7.6346504760222388e-04 9.1133967002058323e-04  -2.9976025501329854e-03 -4.0109397207897693e-04 7.0243724760174747e-04  -9.4171241866395541e-02 -8.1910315444569230e-04 -7.6158485533772658e-04  -2.0752932322616940e-03 -5.5736813154444204e-04 6.7584404639693891e-04  -9.4687143798458592e-02 -9.3565145348990515e-04 3.6918215415057698e-04  5.0983526927832088e-03 2.4228230507624794e-05 5.4840689492501678e-04  -8.7822213009301250e-02 3.1400525663379657e-05 3.2148910904962268e-04  5.4320720814835140e-03 2.8862124829446922e-05 3.8351560482511004e-04  -8.7887820094625341e-02 3.4455248237422332e-05 2.6962368724070556e-04  4.2435690666405533e-03 4.2166137639389458e-05 9.2551334658813947e-04  -8.8005722902084846e-02 2.0694317444577777e-06 6.1763248522889657e-04  2.7795371551546993e-03 8.1305879736887649e-05 1.3986559557104066e-03  -8.8245112071696830e-02 -2.4566520106296158e-05 9.6810062424478472e-04  7.7603657789348764e-04 1.5374095587453374e-04 1.9134206118643414e-03  -8.8667466567044759e-02 -5.3548003441290787e-05 1.3384062540330126e-03  -1.5869335540534357e-03 2.5403871617608653e-04 2.3610310626825518e-03  -8.9444154549468705e-02 -9.3755950015545221e-05 1.7074208591882629e-03  -3.8518507282211240e-03 3.4873839602946217e-04 2.5480566975355167e-03  -9.0768702245337382e-02 -1.4917484044642235e-04 1.9529278243007610e-03  -5.1913152215395247e-03 3.7254067212709701e-04 2.2407849549341942e-03  -9.2714554855967773e-02 -2.0501884626082903e-04 1.6440842647553167e-03  -4.6863590412650272e-03 2.4641694785970539e-04 1.3952648818960939e-03  -9.5033130820777148e-02 -2.2235084036231292e-04 5.3938603877534772e-04  -2.7993522664012970e-03 -3.8362264362068318e-05 6.7563239163552318e-04  -9.6889041597313083e-02 -7.0027438059711171e-05 -1.0316083013388745e-03  -1.6482322788439140e-03 2.7958489541195065e-06 6.1432748980858693e-04  -9.7963876902309510e-02 -2.5059909169024676e-04 7.5078992817963666e-05  5.1201776698128051e-03 7.0532266017654831e-06 5.1548701922283515e-04  -8.5394023217456455e-02 3.0905952758792898e-05 3.3617598123469601e-04  5.4511914524109865e-03 1.8991123357576061e-05 3.5885365227531982e-04  -8.5392920488159926e-02 9.6892958794068601e-05 2.8957036461287332e-04  4.2841051694434912e-03 1.4660426471506147e-05 8.7360394163955206e-04  -8.5580111004694898e-02 -6.2471805523993610e-05 6.1478782444477037e-04  2.8739555255331579e-03 4.9470171549834761e-05 1.3244205290912213e-03  -8.5855270191299737e-02 -1.3672205958012478e-04 9.5459476637243558e-04  9.3657292318817227e-04 1.4147558313928679e-04 1.8219619391754863e-03  -8.6331436074368439e-02 -1.7376010261246257e-04 1.3179244225810793e-03  -1.3794782056574927e-03 3.0474250957205490e-04 2.2641877461141748e-03  -8.7145967067601152e-02 -1.5558184236009781e-04 1.6678857619901052e-03  -3.6680084787157883e-03 5.2406138977475840e-04 2.4514699717582502e-03  -8.8461106633514891e-02 -5.1767386193603607e-05 1.8607859423013249e-03  -5.1728005480426026e-03 7.2720826504079391e-04 2.1413626615782795e-03  -9.0325191791503834e-02 1.5209118481354514e-04 1.5547406792302139e-03  -4.9865988768273547e-03 7.5743131786691869e-04 1.3143180943109450e-03  -9.2453037550601080e-02 4.4243180497750866e-04 5.9777311320410376e-04  -3.1557095634025356e-03 3.5017226575411348e-04 6.3819255263918007e-04  -9.4122913413520484e-02 7.5422541129369211e-04 -8.9313195242997389e-04  -2.0122178783837960e-03 5.1257227571806707e-04 5.4396829551935490e-04  -9.5316660831482145e-02 4.2105845523687769e-04 -5.2356885765632328e-05  5.1439362337194613e-03 4.3930777476539986e-06 4.4832647727807267e-04  -6.8459104929267073e-02 5.2669744886903691e-05 3.9273408231919443e-04  5.4678177850941544e-03 8.7193316676294932e-06 3.0587289953039966e-04  -6.8308233982360814e-02 2.1652679301237385e-04 3.5103618192649936e-04  4.3275280598773667e-03 4.5161837350038778e-06 7.6259745903964706e-04  -6.8696594135458144e-02 -7.7013010273873416e-05 6.6542117248750792e-04  2.9736463223314154e-03 2.3040468130998300e-05 1.1568995179552881e-03  -6.9159197686783566e-02 -1.6279988618524371e-04 1.0207055339337932e-03  1.1069876780657021e-03 8.9613523228303807e-05 1.5947278399839082e-03  -6.9895749792198023e-02 -2.0139370186955644e-04 1.4115109283175124e-03  -1.1428146240057178e-03 2.2016640508469863e-04 1.9904104721748511e-03  -7.0951370767251942e-02 -1.6336895937247420e-04 1.7902451111434803e-03  -3.4122184006493842e-03 4.0995900403243996e-04 2.1729295484836462e-03  -7.2361243454331259e-02 1.0813295772496189e-06 2.0194355227668194e-03  -4.9936705121571305e-03 6.0996402438382358e-04 1.9308621043155694e-03  -7.4026850861545881e-02 3.3321565992807241e-04 1.8494370455277673e-03  -5.0113266244775296e-03 7.0450239595555911e-04 1.2240226352639803e-03  -7.5552479495836170e-02 8.2844100124524259e-04 1.0312466650714163e-03  -3.6791561282976770e-03 5.1216048950689368e-04 5.9156347771272368e-04  -7.6282680455312224e-02 1.3498214407435978e-03 -3.2973053159025893e-04  -2.7161410234759044e-03 4.8038722878519742e-04 5.1401268081174519e-04  -7.6910401407229337e-02 5.9725899884899899e-04 1.8427117179023716e-04  5.3383561721015672e-03 -1.2789921499199610e-05 2.7392466891212956e-04  5.5321014922441857e-03 -2.0447441839990938e-05 2.9216702537046704e-04  5.5120608648504188e-03 2.2249445619906288e-05 1.5215114323423600e-04  5.7038270124761762e-03 -1.5314873369901474e-05 2.0997172474119353e-04  4.7119345248391011e-03 -3.5161538399193295e-05 5.2574894387963074e-04  5.0228060644501521e-03 -1.7533197561848188e-05 5.9027565445304235e-04  3.5561490654136465e-03 -5.6493113107146563e-05 8.6330668396456109e-04  4.0809212438513058e-03 -2.2929898162692193e-05 9.5018216838927338e-04  1.8788648022226209e-03 -5.3671523491988739e-05 1.2627254407013330e-03  2.6061831077836884e-03 4.8772429072055185e-06 1.3650325224277263e-03  -2.4306197163192594e-04 -1.3223278124534903e-05 1.6717279463099553e-03  6.2427219617244487e-04 9.2535961977070587e-05 1.7870064611839218e-03  -2.5549430057120156e-03 7.3155376425464177e-05 1.9584331361213615e-03  -1.6908613401222310e-03 2.5381348970283149e-04 2.0941142170434928e-03  -4.5164390917469223e-03 1.9582748611552333e-04 1.9206049388887339e-03  -3.8971624398414641e-03 4.6784639308681294e-04 2.0948359902930366e-03  -5.2776983788523938e-03 3.0744330239564180e-04 1.4163655040693164e-03  -5.1883752685883931e-03 6.3909784575730949e-04 1.6377897063055717e-03  -4.1349669721523494e-03 3.5557504470906643e-04 7.0595090429879589e-04  -4.6340284009295744e-03 6.2196748547975109e-04 8.9219590120918674e-04  -3.0858307310888803e-03 3.2599730079040654e-04 4.8233377510088895e-04  -3.7056145871185897e-03 6.6455656319510358e-04 5.0389718661642826e-04  -8.5053920355577531e-02 1.7634166188852624e-04 2.5536289503138535e-04  5.7704922340585463e-03 7.3666910096113891e-05 6.9541788236277154e-04  6.1372379145051836e-03 5.0488876256235162e-05 4.9165358477424594e-04  -8.5009162169211117e-02 9.5577367701834092e-05 2.1096175848810318e-04  -8.5283283970889537e-02 2.7568510689733453e-04 6.2640254327346286e-04  4.9800683015557637e-03 1.2249001058533271e-04 1.1878279696316595e-03  -8.5487754107891223e-02 3.9627360810004703e-04 1.0569944902896569e-03  3.6338492550021030e-03 1.7576467562307235e-04 1.7811546620658833e-03  -8.5857699194870199e-02 4.6405876967478625e-04 1.6359235530162446e-03  1.7124023024319539e-03 2.0972563693873056e-04 2.4934696982410998e-03  -8.6626969376125948e-02 3.9230046802537057e-04 2.5129779059600548e-03  -6.8346179188986814e-04 1.9997992831226986e-04 3.3009108294278972e-03  -8.8126695101623784e-02 5.9527509370289581e-05 3.8022102375759523e-03  -3.1758790965123978e-03 1.2567316869494357e-04 4.0934235785774027e-03  -9.0504858632514062e-02 -6.3584178542847730e-04 5.1445767438564457e-03  -5.4498806025294081e-03 -3.4499077988599393e-05 4.6058957944422434e-03  -9.3345133124362253e-02 -1.6106325735336182e-03 4.8745239848949776e-03  -6.3053062750781331e-03 -3.8026504160073958e-04 4.9857079583392081e-03  -9.5541650533292721e-02 -1.9671173358813492e-03 2.6799641923771675e-03  -6.0650424770119721e-03 -1.6241671668492847e-04 1.3488942138285647e-03  -9.5746596919400545e-02 -1.1772181581480422e-03 3.7829271615864787e-03  -5.9614510790429167e-03 -6.7787491915815472e-04 1.9454761590212831e-03  -1.0848021268539496e-01 1.4379226027371044e-04 1.2267655958608423e-04  -1.0850223752850591e-01 1.0401021422471746e-04 8.7096771587545085e-05  -1.0837794108988771e-01 1.9384046601625995e-04 4.3978090596527428e-04  -1.0808284345460069e-01 2.4403032328829387e-04 8.0301218743061484e-04  -1.0778340256395401e-01 2.3653364491398339e-04 1.3284029767331046e-03  -1.0784087314899345e-01 9.6285616882093995e-05 2.2261685384825603e-03  -1.0887134917531703e-01 -2.5830335309684471e-04 3.6719572405774004e-03  -1.1145364797952190e-01 -8.5321389004577310e-04 5.2490151711697131e-03  -1.1567845104124452e-01 -1.4261491950632419e-03 4.9154405879554630e-03  -1.2006207948808119e-01 -1.5639281693689117e-03 2.6319973438940132e-03  -1.2167396596793180e-01 -1.6368321882960495e-03 3.4793820614072903e-03  -1.1192854221995020e-01 6.7881809673631143e-05 9.9122528411713627e-05  -1.1195608164297689e-01 8.7715248254466500e-05 5.7836587526278313e-05  -1.1170181128630692e-01 9.9454083933328356e-06 3.9389909523451566e-04  -1.1125759574304581e-01 -4.8123234047653769e-05 7.3387633070956201e-04  -1.1080743393862809e-01 -1.2845750281545294e-04 1.2328945985560055e-03  -1.1073986344186534e-01 -2.6645790803205200e-04 2.0875656536351352e-03  -1.1177807612046885e-01 -4.8822423712891616e-04 3.4239688104307515e-03  -1.1454631478107004e-01 -7.3742734341547555e-04 4.7865500593367583e-03  -1.1922130123104362e-01 -8.4949353928696198e-04 4.1566641691594183e-03  -1.2416357987328239e-01 -5.3591612233942678e-04 2.0761120629657188e-03  -1.2614670497205965e-01 -6.3596127789378252e-04 2.6809229131847176e-03  -1.0859118163307337e-01 7.0354125612540317e-06 1.4006624688313855e-04  -1.0853689724926871e-01 1.1435616371471705e-04 9.3561656838803895e-05  -1.0838003446939717e-01 -1.5799991888430811e-04 4.3371220572716707e-04  -1.0802212695365600e-01 -3.0885889364979654e-04 7.7480684038052988e-04  -1.0771043826378894e-01 -4.3332972537093762e-04 1.2570630177740415e-03  -1.0776664942262677e-01 -5.1820978462987133e-04 2.0300488123006074e-03  -1.0878122668046294e-01 -5.2208594483069940e-04 3.1266031237889352e-03  -1.1136596253079356e-01 -3.3511857243988648e-04 4.0037208573719223e-03  -1.1559686404844316e-01 1.0579268306023021e-04 3.3332836657140440e-03  -1.2007050911393150e-01 8.2231577175269528e-04 1.9027765474040163e-03  -1.2211303820335601e-01 5.3267735251166088e-04 2.3653284897743763e-03  -8.5195416729632129e-02 -6.7996795916475208e-06 2.5496967849214747e-04  -8.5009674573600272e-02 2.0307498549636090e-04 1.9669298451164581e-04  -8.5145240340877240e-02 -2.0808350096731187e-04 5.7167245398903480e-04  -8.5165146305436035e-02 -3.6779004372912574e-04 9.4242841400072588e-04  -8.5352326149756505e-02 -4.8270969887875348e-04 1.4232802023807522e-03  -8.5881246128324887e-02 -5.0674802482354405e-04 2.0943779045918139e-03  -8.7063890553082321e-02 -3.5512372172462694e-04 2.9421882078362366e-03  -8.9228192746421603e-02 9.2161136292622534e-05 3.5822638462069327e-03  -9.2207383972137041e-02 8.5295914821092555e-04 3.4404767420498058e-03  -9.4823989106850623e-02 1.8350704669532825e-03 1.9664844816616924e-03  -9.6176225067496499e-02 7.0672895896554369e-04 2.5029572756061001e-03  5.9035847261567388e-03 -4.0116539829303343e-05 3.1714072217814464e-04  6.0697866204282381e-03 -3.6724912170243516e-05 3.1150807087592888e-04  5.3838929183006980e-03 -6.6558315666927516e-05 7.0787765726987425e-04  4.5014034641391266e-03 -1.0659096779143347e-04 1.1516787182515289e-03  3.1079976557116589e-03 -1.1763735639336356e-04 1.6584113716121261e-03  1.1547376775703263e-03 -6.5559464069282229e-05 2.2050758053678335e-03  -1.2751863690404382e-03 7.8473734390027773e-05 2.6876263997559248e-03  -3.8283892032466029e-03 3.0748594106669969e-04 2.9006459749595136e-03  -5.6756753879113513e-03 5.4001974715574947e-04 2.5847683668048732e-03  -5.5202595927014058e-03 6.0155726778678999e-04 1.6643890803152385e-03  -4.6652137140154315e-03 6.5853552523734431e-04 1.1087451665294332e-03  -8.7123150980960823e-02 2.6443189039380673e-04 7.8630776223598836e-05  6.2633538634419015e-03 9.2218120592312060e-05 6.3325638055037052e-04  6.6067403219638148e-03 7.0946983204032074e-05 4.3100791873540461e-04  -8.7139864198415490e-02 1.7657591803436274e-04 8.4226136483779861e-05  -8.7237034558307461e-02 3.6403183608861741e-04 3.7034435415954603e-04  5.5546982154295764e-03 1.4714235834911894e-04 1.1248002431961538e-03  -8.7211700435047793e-02 4.9577464621382479e-04 7.0961805945997044e-04  4.3806081559385869e-03 2.1040981147800642e-04 1.7617203669538322e-03  -8.7197504571664086e-02 5.7142984170857570e-04 1.2785217341302515e-03  2.6850063162147486e-03 2.6553104129877229e-04 2.6295950180612042e-03  -8.7416134323657191e-02 4.7721722334911882e-04 2.4260602104988348e-03  4.3127892191568409e-04 3.0482461531768562e-04 3.8140427564024733e-03  -8.8450527400101356e-02 5.8147258866534448e-05 4.6889713868999289e-03  -2.3396825444231203e-03 3.4422641352400946e-04 5.4052541978422105e-03  -9.1179207824495470e-02 -8.8992950030696287e-04 8.2958059579161421e-03  -4.9390564754495372e-03 4.2578660598561834e-04 7.5950482612322703e-03  -9.4597988869724675e-02 -2.5825645546346684e-03 1.1459092658676812e-02  -7.6783889749189030e-03 3.0499741816993585e-04 1.0782750500289439e-02  -9.8117983828953759e-02 -3.0677152169587812e-03 8.7882660746975861e-03  -8.1444779119097394e-03 2.5315313232030802e-04 5.8817217800865339e-03  -1.0046098980505315e-01 -2.8326475289382302e-03 1.2743667444125284e-02  -9.3752411489326313e-03 -4.6742527593900867e-04 3.6554841327218934e-03  -1.1165809243292003e-01 2.2486435785983459e-04 -1.1964701534460088e-04  -1.1168630234885160e-01 1.7088640798692615e-04 -8.5862725130893440e-05  -1.1140157103874891e-01 2.7566543851066915e-04 1.0377073114044698e-04  -1.1081662280554956e-01 3.3071092992593927e-04 3.5641846925191386e-04  -1.1004928089658707e-01 3.1195318944075975e-04 8.7943106889771540e-04  -1.0939835578879711e-01 9.5168703875066503e-05 2.1398780894751885e-03  -1.0970217778734809e-01 -4.9181616060378435e-04 4.8528470153138773e-03  -1.1246116191568353e-01 -1.5607056925253172e-03 9.2772900048217893e-03  -1.1764468051491392e-01 -2.8655145606990488e-03 1.2773427840310806e-02  -1.2417398697307296e-01 -3.4809862848086382e-03 9.6505344350549058e-03  -1.2819152317147281e-01 -3.9612676485441447e-03 1.1859289202054285e-02  -1.1529126378232492e-01 8.6986622801989258e-05 -1.7238198587608209e-04  -1.1529634974742471e-01 9.9711829460515959e-05 -1.4146437833801684e-04  -1.1489479591025174e-01 2.5490999402669151e-05 3.7984564097264363e-05  -1.1414975611373086e-01 -4.3385590184447590e-05 2.6968402332481361e-04  -1.1323756244601040e-01 -1.5134385897296889e-04 7.7637359206210595e-04  -1.1250036223911387e-01 -3.7413764777341225e-04 2.0204185792401510e-03  -1.1278036625507727e-01 -8.3494222722689407e-04 4.6590611652896118e-03  -1.1581248427973527e-01 -1.5715884087378475e-03 8.7361135151921756e-03  -1.2175210153377403e-01 -2.0332042801311334e-03 1.1295548337806927e-02  -1.2920228524853586e-01 -1.3982612684743357e-03 7.9450134579543991e-03  -1.3363043031132532e-01 -1.5676810295398307e-03 9.5936739613425373e-03  -1.1185354008896069e-01 -3.1356984727431889e-05 -1.2635108743889724e-04  -1.1177154217647460e-01 7.0533208603193296e-05 -1.2061154933859363e-04  -1.1148795835542563e-01 -2.0968980926297479e-04 1.0147090451440510e-04  -1.1086081428520074e-01 -3.7906747015462375e-04 3.4638465568931939e-04  -1.101406689041