<?xml version="1.0"?>
<VTKFile type="UnstructuredGrid"  version="0.1"  >
<UnstructuredGrid>
<Piece  NumberOfPoints="539" NumberOfCells="2160">
<Points>
<DataArray  type="Float64"  NumberOfComponents="3"  format="ascii">0 0.2 0.2  0.1 0.2 0.2  0.1 0.3 0.2  0.1 0.3 0.3  0.1 0.2 0.3  0 0.2 0.3  0 0.3 0.2  0 0.3 0.3  0.2 0.2 0.2  0.2 0.3 0.2  0.2 0.3 0.3  0.2 0.2 0.3  0.3 0.2 0.2  0.3 0.3 0.2  0.3 0.3 0.3  0.3 0.2 0.3  0.4 0.2 0.2  0.4 0.3 0.2  0.4 0.3 0.3  0.4 0.2 0.3  0.5 0.2 0.2  0.5 0.3 0.2  0.5 0.3 0.3  0.5 0.2 0.3  0.6 0.2 0.2  0.6 0.3 0.2  0.6 0.3 0.3  0.6 0.2 0.3  0.7 0.2 0.2  0.7 0.3 0.2  0.7 0.3 0.3  0.7 0.2 0.3  0.8 0.2 0.2  0.8 0.3 0.2  0.8 0.3 0.3  0.8 0.2 0.3  0.9 0.2 0.2  0.9 0.3 0.2  0.9 0.3 0.3  0.9 0.2 0.3  1 0.2 0.2  1 0.3 0.2  1 0.3 0.3  1 0.2 0.3  0.1 0.4 0.2  0.1 0.4 0.3  0 0.4 0.2  0 0.4 0.3  0.2 0.4 0.2  0.2 0.4 0.3  0.3 0.4 0.2  0.3 0.4 0.3  0.4 0.4 0.2  0.4 0.4 0.3  0.5 0.4 0.2  0.5 0.4 0.3  0.6 0.4 0.2  0.6 0.4 0.3  0.7 0.4 0.2  0.7 0.4 0.3  0.8 0.4 0.2  0.8 0.4 0.3  0.9 0.4 0.2  0.9 0.4 0.3  1 0.4 0.2  1 0.4 0.3  0.1 0.5 0.2  0.1 0.5 0.3  0 0.5 0.2  0 0.5 0.3  0.2 0.5 0.2  0.2 0.5 0.3  0.3 0.5 0.2  0.3 0.5 0.3  0.4 0.5 0.2  0.4 0.5 0.3  0.5 0.5 0.2  0.5 0.5 0.3  0.6 0.5 0.2  0.6 0.5 0.3  0.7 0.5 0.2  0.7 0.5 0.3  0.8 0.5 0.2  0.8 0.5 0.3  0.9 0.5 0.2  0.9 0.5 0.3  1 0.5 0.2  1 0.5 0.3  0.1 0.6 0.2  0.1 0.6 0.3  0 0.6 0.2  0 0.6 0.3  0.2 0.6 0.2  0.2 0.6 0.3  0.3 0.6 0.2  0.3 0.6 0.3  0.4 0.6 0.2  0.4 0.6 0.3  0.5 0.6 0.2  0.5 0.6 0.3  0.6 0.6 0.2  0.6 0.6 0.3  0.7 0.6 0.2  0.7 0.6 0.3  0.8 0.6 0.2  0.8 0.6 0.3  0.9 0.6 0.2  0.9 0.6 0.3  1 0.6 0.2  1 0.6 0.3  0.1 0.7 0.2  0.1 0.7 0.3  0 0.7 0.2  0 0.7 0.3  0.2 0.7 0.2  0.2 0.7 0.3  0.3 0.7 0.2  0.3 0.7 0.3  0.4 0.7 0.2  0.4 0.7 0.3  0.5 0.7 0.2  0.5 0.7 0.3  0.6 0.7 0.2  0.6 0.7 0.3  0.7 0.7 0.2  0.7 0.7 0.3  0.8 0.7 0.2  0.8 0.7 0.3  0.9 0.7 0.2  0.9 0.7 0.3  1 0.7 0.2  1 0.7 0.3  0.1 0.8 0.2  0.1 0.8 0.3  0 0.8 0.2  0 0.8 0.3  0.2 0.8 0.2  0.2 0.8 0.3  0.3 0.8 0.2  0.3 0.8 0.3  0.4 0.8 0.2  0.4 0.8 0.3  0.5 0.8 0.2  0.5 0.8 0.3  0.6 0.8 0.2  0.6 0.8 0.3  0.7 0.8 0.2  0.7 0.8 0.3  0.8 0.8 0.2  0.8 0.8 0.3  0.9 0.8 0.2  0.9 0.8 0.3  1 0.8 0.2  1 0.8 0.3  0.1 0.3 0.4  0.1 0.2 0.4  0 0.2 0.4  0 0.3 0.4  0.2 0.3 0.4  0.2 0.2 0.4  0.3 0.3 0.4  0.3 0.2 0.4  0.4 0.3 0.4  0.4 0.2 0.4  0.5 0.3 0.4  0.5 0.2 0.4  0.6 0.3 0.4  0.6 0.2 0.4  0.7 0.3 0.4  0.7 0.2 0.4  0.8 0.3 0.4  0.8 0.2 0.4  0.9 0.3 0.4  0.9 0.2 0.4  1 0.3 0.4  1 0.2 0.4  0.1 0.4 0.4  0 0.4 0.4  0.2 0.4 0.4  0.3 0.4 0.4  0.4 0.4 0.4  0.5 0.4 0.4  0.6 0.4 0.4  0.7 0.4 0.4  0.8 0.4 0.4  0.9 0.4 0.4  1 0.4 0.4  0.1 0.5 0.4  0 0.5 0.4  0.2 0.5 0.4  0.3 0.5 0.4  0.4 0.5 0.4  0.5 0.5 0.4  0.6 0.5 0.4  0.7 0.5 0.4  0.8 0.5 0.4  0.9 0.5 0.4  1 0.5 0.4  0.1 0.6 0.4  0 0.6 0.4  0.2 0.6 0.4  0.3 0.6 0.4  0.4 0.6 0.4  0.5 0.6 0.4  0.6 0.6 0.4  0.7 0.6 0.4  0.8 0.6 0.4  0.9 0.6 0.4  1 0.6 0.4  0.1 0.7 0.4  0 0.7 0.4  0.2 0.7 0.4  0.3 0.7 0.4  0.4 0.7 0.4  0.5 0.7 0.4  0.6 0.7 0.4  0.7 0.7 0.4  0.8 0.7 0.4  0.9 0.7 0.4  1 0.7 0.4  0.1 0.8 0.4  0 0.8 0.4  0.2 0.8 0.4  0.3 0.8 0.4  0.4 0.8 0.4  0.5 0.8 0.4  0.6 0.8 0.4  0.7 0.8 0.4  0.8 0.8 0.4  0.9 0.8 0.4  1 0.8 0.4  0.1 0.3 0.5  0.1 0.2 0.5  0 0.2 0.5  0 0.3 0.5  0.2 0.3 0.5  0.2 0.2 0.5  0.3 0.3 0.5  0.3 0.2 0.5  0.4 0.3 0.5  0.4 0.2 0.5  0.5 0.3 0.5  0.5 0.2 0.5  0.6 0.3 0.5  0.6 0.2 0.5  0.7 0.3 0.5  0.7 0.2 0.5  0.8 0.3 0.5  0.8 0.2 0.5  0.9 0.3 0.5  0.9 0.2 0.5  1 0.3 0.5  1 0.2 0.5  0.1 0.4 0.5  0 0.4 0.5  0.2 0.4 0.5  0.3 0.4 0.5  0.4 0.4 0.5  0.5 0.4 0.5  0.6 0.4 0.5  0.7 0.4 0.5  0.8 0.4 0.5  0.9 0.4 0.5  1 0.4 0.5  0.1 0.5 0.5  0 0.5 0.5  0.2 0.5 0.5  0.3 0.5 0.5  0.4 0.5 0.5  0.5 0.5 0.5  0.6 0.5 0.5  0.7 0.5 0.5  0.8 0.5 0.5  0.9 0.5 0.5  1 0.5 0.5  0.1 0.6 0.5  0 0.6 0.5  0.2 0.6 0.5  0.3 0.6 0.5  0.4 0.6 0.5  0.5 0.6 0.5  0.6 0.6 0.5  0.7 0.6 0.5  0.8 0.6 0.5  0.9 0.6 0.5  1 0.6 0.5  0.1 0.7 0.5  0 0.7 0.5  0.2 0.7 0.5  0.3 0.7 0.5  0.4 0.7 0.5  0.5 0.7 0.5  0.6 0.7 0.5  0.7 0.7 0.5  0.8 0.7 0.5  0.9 0.7 0.5  1 0.7 0.5  0.1 0.8 0.5  0 0.8 0.5  0.2 0.8 0.5  0.3 0.8 0.5  0.4 0.8 0.5  0.5 0.8 0.5  0.6 0.8 0.5  0.7 0.8 0.5  0.8 0.8 0.5  0.9 0.8 0.5  1 0.8 0.5  0.1 0.3 0.6  0.1 0.2 0.6  0 0.2 0.6  0 0.3 0.6  0.2 0.3 0.6  0.2 0.2 0.6  0.3 0.3 0.6  0.3 0.2 0.6  0.4 0.3 0.6  0.4 0.2 0.6  0.5 0.3 0.6  0.5 0.2 0.6  0.6 0.3 0.6  0.6 0.2 0.6  0.7 0.3 0.6  0.7 0.2 0.6  0.8 0.3 0.6  0.8 0.2 0.6  0.9 0.3 0.6  0.9 0.2 0.6  1 0.3 0.6  1 0.2 0.6  0.1 0.4 0.6  0 0.4 0.6  0.2 0.4 0.6  0.3 0.4 0.6  0.4 0.4 0.6  0.5 0.4 0.6  0.6 0.4 0.6  0.7 0.4 0.6  0.8 0.4 0.6  0.9 0.4 0.6  1 0.4 0.6  0.1 0.5 0.6  0 0.5 0.6  0.2 0.5 0.6  0.3 0.5 0.6  0.4 0.5 0.6  0.5 0.5 0.6  0.6 0.5 0.6  0.7 0.5 0.6  0.8 0.5 0.6  0.9 0.5 0.6  1 0.5 0.6  0.1 0.6 0.6  0 0.6 0.6  0.2 0.6 0.6  0.3 0.6 0.6  0.4 0.6 0.6  0.5 0.6 0.6  0.6 0.6 0.6  0.7 0.6 0.6  0.8 0.6 0.6  0.9 0.6 0.6  1 0.6 0.6  0.1 0.7 0.6  0 0.7 0.6  0.2 0.7 0.6  0.3 0.7 0.6  0.4 0.7 0.6  0.5 0.7 0.6  0.6 0.7 0.6  0.7 0.7 0.6  0.8 0.7 0.6  0.9 0.7 0.6  1 0.7 0.6  0.1 0.8 0.6  0 0.8 0.6  0.2 0.8 0.6  0.3 0.8 0.6  0.4 0.8 0.6  0.5 0.8 0.6  0.6 0.8 0.6  0.7 0.8 0.6  0.8 0.8 0.6  0.9 0.8 0.6  1 0.8 0.6  0.1 0.3 0.7  0.1 0.2 0.7  0 0.2 0.7  0 0.3 0.7  0.2 0.3 0.7  0.2 0.2 0.7  0.3 0.3 0.7  0.3 0.2 0.7  0.4 0.3 0.7  0.4 0.2 0.7  0.5 0.3 0.7  0.5 0.2 0.7  0.6 0.3 0.7  0.6 0.2 0.7  0.7 0.3 0.7  0.7 0.2 0.7  0.8 0.3 0.7  0.8 0.2 0.7  0.9 0.3 0.7  0.9 0.2 0.7  1 0.3 0.7  1 0.2 0.7  0.1 0.4 0.7  0 0.4 0.7  0.2 0.4 0.7  0.3 0.4 0.7  0.4 0.4 0.7  0.5 0.4 0.7  0.6 0.4 0.7  0.7 0.4 0.7  0.8 0.4 0.7  0.9 0.4 0.7  1 0.4 0.7  0.1 0.5 0.7  0 0.5 0.7  0.2 0.5 0.7  0.3 0.5 0.7  0.4 0.5 0.7  0.5 0.5 0.7  0.6 0.5 0.7  0.7 0.5 0.7  0.8 0.5 0.7  0.9 0.5 0.7  1 0.5 0.7  0.1 0.6 0.7  0 0.6 0.7  0.2 0.6 0.7  0.3 0.6 0.7  0.4 0.6 0.7  0.5 0.6 0.7  0.6 0.6 0.7  0.7 0.6 0.7  0.8 0.6 0.7  0.9 0.6 0.7  1 0.6 0.7  0.1 0.7 0.7  0 0.7 0.7  0.2 0.7 0.7  0.3 0.7 0.7  0.4 0.7 0.7  0.5 0.7 0.7  0.6 0.7 0.7  0.7 0.7 0.7  0.8 0.7 0.7  0.9 0.7 0.7  1 0.7 0.7  0.1 0.8 0.7  0 0.8 0.7  0.2 0.8 0.7  0.3 0.8 0.7  0.4 0.8 0.7  0.5 0.8 0.7  0.6 0.8 0.7  0.7 0.8 0.7  0.8 0.8 0.7  0.9 0.8 0.7  1 0.8 0.7  0.1 0.3 0.8  0.1 0.2 0.8  0 0.2 0.8  0 0.3 0.8  0.2 0.3 0.8  0.2 0.2 0.8  0.3 0.3 0.8  0.3 0.2 0.8  0.4 0.3 0.8  0.4 0.2 0.8  0.5 0.3 0.8  0.5 0.2 0.8  0.6 0.3 0.8  0.6 0.2 0.8  0.7 0.3 0.8  0.7 0.2 0.8  0.8 0.3 0.8  0.8 0.2 0.8  0.9 0.3 0.8  0.9 0.2 0.8  1 0.3 0.8  1 0.2 0.8  0.1 0.4 0.8  0 0.4 0.8  0.2 0.4 0.8  0.3 0.4 0.8  0.4 0.4 0.8  0.5 0.4 0.8  0.6 0.4 0.8  0.7 0.4 0.8  0.8 0.4 0.8  0.9 0.4 0.8  1 0.4 0.8  0.1 0.5 0.8  0 0.5 0.8  0.2 0.5 0.8  0.3 0.5 0.8  0.4 0.5 0.8  0.5 0.5 0.8  0.6 0.5 0.8  0.7 0.5 0.8  0.8 0.5 0.8  0.9 0.5 0.8  1 0.5 0.8  0.1 0.6 0.8  0 0.6 0.8  0.2 0.6 0.8  0.3 0.6 0.8  0.4 0.6 0.8  0.5 0.6 0.8  0.6 0.6 0.8  0.7 0.6 0.8  0.8 0.6 0.8  0.9 0.6 0.8  1 0.6 0.8  0.1 0.7 0.8  0 0.7 0.8  0.2 0.7 0.8  0.3 0.7 0.8  0.4 0.7 0.8  0.5 0.7 0.8  0.6 0.7 0.8  0.7 0.7 0.8  0.8 0.7 0.8  0.9 0.7 0.8  1 0.7 0.8  0.1 0.8 0.8  0 0.8 0.8  0.2 0.8 0.8  0.3 0.8 0.8  0.4 0.8 0.8  0.5 0.8 0.8  0.6 0.8 0.8  0.7 0.8 0.8  0.8 0.8 0.8  0.9 0.8 0.8  1 0.8 0.8  </DataArray>
</Points>
<Cells>
[...]
<PointData  Vectors="f_23"> 
<DataArray  type="Float64"  Name="f_23"  NumberOfComponents="3" format="ascii">-2.3916089762421558e-04 -9.0144931072103296e-05 3.1363920428738359e-06  -1.8927389352414034e-04 -1.3613935884480328e-04 -5.0113742059419622e-07  -2.3189715252218442e-04 -9.4611852017823122e-05 -6.3072267926343982e-06  8.3196434806353900e-02 -1.3934203763154914e-04 -3.8210351532051592e-04  -1.9388369875215190e-04 -1.3414064295771063e-04 -2.4462704972728482e-06  -2.3972037888191211e-04 -9.1604829171048079e-05 -4.9611390636774681e-07  -2.7684173675563973e-04 -5.5579917822205076e-05 -4.6950314070690129e-06  8.3497875444924083e-02 -5.4379403608622397e-04 -1.0349049313398313e-03  -1.2766024673293230e-04 -2.0669965817381780e-04 1.0783347194371480e-05  -1.6627446294511641e-04 -1.5448076275728097e-04 -4.0291888381864115e-06  8.3701197810821013e-02 8.0454130109980230e-06 -1.6474737251168635e-04  -1.2578354918039102e-04 -2.1855457657938876e-04 8.9902976081525099e-06  -6.5697819838351766e-05 -2.6305005862660983e-04 3.6114795424813892e-05  -1.0032899159170318e-04 -2.0232710949045639e-04 7.7208178232426282e-06  8.3675773080044966e-02 1.0159310454489232e-04 -2.0208110086081325e-04  -5.0283845284044853e-05 -2.9902634106681496e-04 4.1885966277540325e-05  -1.1290433131828106e-05 -2.9355505076562985e-04 7.6912637753114436e-05  -3.3501107862793895e-05 -2.3015022619932680e-04 3.2629621465837724e-05  8.3761489327353708e-02 2.0651609708554326e-04 -3.0891102971300472e-04  1.7687212670071673e-05 -3.6422049113976981e-04 1.0575326281880772e-04  2.2569962078389164e-05 -2.8170615677111053e-04 1.2110957684132725e-04  2.1438642772178725e-05 -2.2738676266162122e-04 6.6501118600821349e-05  8.3961495863465241e-02 3.4361500008879266e-04 -4.5472175425024191e-04  5.1089819836058902e-05 -3.9024672387796551e-04 1.9269636951647743e-04  4.3246929200402636e-05 -2.1929124754322183e-04 1.4312991822979938e-04  6.1542041951397517e-05 -1.8654505166654505e-04 9.3757994506208007e-05  8.4255823353780970e-02 4.7427402469439237e-04 -5.9819455414372160e-04  4.0840411158744409e-05 -3.4742916571022447e-04 2.6423164245253071e-04  9.2738383892034622e-05 -1.2659689290883038e-04 1.1718590697972594e-04  1.0915295627919353e-04 -1.1656509891416482e-04 9.0108823580684755e-05  8.4514996193612357e-02 5.4362587053524670e-04 -6.2103703720446798e-04  3.6326878831978698e-05 -2.3604081990293222e-04 2.5630002249930531e-04  2.3277233835370986e-04 -5.1969403865612838e-05 5.9738636672677228e-05  2.1803911877126477e-04 -4.9560124663266506e-05 5.0039813906947393e-05  8.4296265718253272e-02 4.9518746349196379e-04 -2.7466987809896280e-04  1.2922174274577209e-04 -1.1839136979047481e-04 1.3854751230270952e-04  4.1321461962043527e-04 -1.7448837687961836e-05 3.1769129624036304e-05  3.9444804353825345e-04 -1.7381252169957931e-05 3.1170756039027242e-05  8.3070156143046331e-02 2.4039657742913912e-04 1.9372675550087217e-04  3.1969342599140151e-04 -3.8840256642179365e-05 7.1640225078106230e-05  5.1433952377833575e-04 -4.6099341971927779e-06 4.9955340654264961e-05  5.1807076320610046e-04 -5.5283517797474303e-06 3.2194986267978098e-05  8.1392723431263192e-02 -1.9300270148137571e-04 -1.3915894910801715e-03  4.7390715561788807e-04 -2.5212947902064626e-05 6.8430247175865449e-05  -2.8520181460099631e-04 -5.6468092874850838e-05 -1.2415071430141409e-05  1.1529119386866744e-01 1.7664224111429812e-04 -3.8393474044711264e-04  -3.2616890064932606e-04 -3.1774576837774958e-05 -7.7942040139660960e-06  1.1605263585137639e-01 -5.4232404532539075e-04 -1.1155082598067055e-03  -2.1405957017686799e-04 -9.8042731868737008e-05 -1.6902809844660782e-05  1.1571092834033833e-01 1.8872218618157257e-04 -1.3390760654944948e-04  -1.3291240079718147e-04 -1.3351677879845148e-04 -1.6330205138361706e-05  1.1575518485238979e-01 2.1957258901520552e-04 -1.1631480840241815e-04  -4.4236809632187127e-05 -1.5372855161338916e-04 -5.3130668746519976e-06  1.1581046244064271e-01 2.8724008153270184e-04 -1.3380141665178319e-04  3.9208830565997395e-05 -1.5272241361072013e-04 1.7097035037232761e-05  1.1592643862774411e-01 3.7484612079624196e-04 -1.4166278784528700e-04  1.0602444447072262e-04 -1.2644509231681341e-04 4.4073044713023780e-05  1.1606490882253820e-01 4.2220651140546529e-04 -1.0949495329715262e-04  1.6318571004814161e-04 -7.8807792948418426e-05 5.5590997923887305e-05  1.1612724046613106e-01 3.4864943119882006e-04 1.1327098445409289e-05  2.5881893502761519e-04 -3.0394851677566312e-05 3.4094328416993805e-05  1.1594493586295064e-01 1.1618120653634708e-04 2.2853480235218043e-04  4.1644776559513993e-04 -1.2479251929348060e-05 2.2386526993800000e-05  1.1534531471969127e-01 -2.0990937539714554e-04 7.8405971589345726e-05  5.2757108720969412e-04 -3.4895932537904918e-06 2.4301910558486392e-05  1.1398118427833115e-01 -5.0367667358298642e-05 -1.9992416401285410e-03  -3.2062008045825803e-04 -3.6354070757407513e-05 -1.2928318983689745e-05  1.2621803492255765e-01 1.2732751918133171e-04 -3.2517191419341592e-04  -3.5628001442447420e-04 -1.9487147983807376e-05 -7.5344740864414006e-06  1.2694582138489408e-01 -3.8306104741817808e-04 -1.0587279156631204e-03  -2.4950449693342990e-04 -6.5416380212392534e-05 -1.9102582057425181e-05  1.2659205031864121e-01 1.9500561576912275e-04 -7.5434185684683215e-05  -1.5730411805364757e-04 -9.2217769884224462e-05 -2.1965784700537740e-05  1.2666022845308406e-01 1.9042377586945812e-04 -4.5303178878312529e-05  -5.2209349461971521e-05 -1.0842497913570561e-04 -1.5888190011005967e-05  1.2674571670568116e-01 2.0203414656351414e-04 -3.6090696930816444e-05  5.1469749481019183e-05 -1.0969096293911281e-04 1.9143654589639905e-06  1.2685538503353672e-01 2.2281280049310845e-04 -8.0571577289967686e-06  1.3795082965735512e-04 -9.3187525274478835e-05 2.8202845151050274e-05  1.2692497260998625e-01 2.1316733225284319e-04 5.5713614573345055e-05  2.0471044874256165e-04 -5.8878522301962823e-05 4.5709685027482010e-05  1.2685822240433367e-01 1.2465058163335692e-04 1.7336433404024974e-04  2.9045082459535162e-04 -1.7573891467837811e-05 3.1207705042363028e-05  1.2661894897653117e-01 -5.2671523020045429e-05 2.7341877383701448e-04  4.2738820707199107e-04 -6.4443072413665711e-06 1.9359241225380632e-05  1.2630288942607226e-01 -2.4196798582112847e-04 -1.5770831466582546e-04  5.2327994633034533e-04 3.7078676755045287e-06 2.5157801844440851e-05  1.2518075449947813e-01 4.1772483544166282e-05 -2.0384489981467011e-03  -3.4544606596120428e-04 -2.3565398310042286e-05 -1.0497962183747311e-05  1.1530948959033407e-01 1.1103958695671387e-04 -2.8258377324950223e-04  -3.7585659250999196e-04 -1.5009183553563309e-05 -6.5327083570511090e-06  1.1590738063360341e-01 -2.2991392901389488e-04 -9.6999655616385075e-04  -2.7733627150673484e-04 -4.5638210756751426e-05 -1.4100031531241591e-05  1.1566736555842420e-01 1.3864280781038617e-04 -5.4566665587462443e-05  -1.7941347316498198e-04 -6.8336759552433947e-05 -1.4923961592152480e-05  1.1573205088387371e-01 1.0568618190681935e-04 -2.0731707667912058e-05  -6.3443463255504170e-05 -8.4850172336643141e-05 -8.2799324763658435e-06  1.1581666507691174e-01 7.4988573957958317e-05 -3.9092318897971628e-06  5.4505935316826601e-05 -9.1008342256817702e-05 8.5720114025556933e-06  1.1591081805734076e-01 4.7967156369435450e-05 3.2541511001855060e-05  1.5730592847850803e-04 -8.4177442474107081e-05 3.3345088131713583e-05  1.1593443159089585e-01 1.3082316749617069e-05 9.9918960826717764e-05  2.3742247776720667e-04 -6.1666496554367193e-05 5.1023206838430724e-05  1.1580357576941226e-01 -3.3759222981979818e-05 2.0159745415039513e-04  3.2153886618666559e-04 -2.4303490961156256e-05 3.7247982408032485e-05  1.1555061550024905e-01 -7.1334189919330078e-05 2.2740746313879167e-04  4.3606613290612093e-04 -8.1951754495130031e-06 2.0705854374586499e-05  1.1537141208155434e-01 -5.0276929369450129e-05 -2.7988234107258512e-04  5.1404963109906736e-04 2.7752014849743246e-06 2.7072708738039601e-05  1.1459689067269756e-01 2.0072062287177929e-04 -1.8687270294123204e-03  -3.6243745157402450e-04 -1.5127668629399949e-05 -1.0695412392941858e-05  8.2303559563421780e-02 5.6560549122722967e-05 -2.5672661365339978e-04  -3.8746779750185455e-04 -8.5808622558016094e-06 -8.3289099335929014e-06  8.2124371006193825e-02 -3.8657738052747198e-04 -8.2457196392588764e-04  -3.0341663529789115e-04 -3.0054444715109024e-05 -9.4142185149176404e-06  8.2609061889808294e-02 3.6087750112377955e-05 -6.2072883391176763e-05  -2.0627002657776621e-04 -5.1662545981326489e-05 -6.0987513622737902e-06  8.2624102612202183e-02 -4.3080924937952490e-05 -2.8966472550243825e-05  -8.3782735968768383e-05 -7.2404101684708634e-05 2.3408530467955673e-06  8.2642198990015792e-02 -1.1866625081048916e-04 -7.4960855706666125e-06  4.4775489350983431e-05 -8.5148245400685834e-05 1.8162016191831109e-05  8.2663320531748491e-02 -1.9433581360057430e-04 4.1734134557949368e-05  1.5987327257473770e-04 -8.6541425859060130e-05 4.0607136964916872e-05  8.2624141837042281e-02 -2.6249194833518789e-04 1.2874936634491122e-04  2.5376531443603567e-04 -7.4464735582244879e-05 5.8255043106659867e-05  8.2470155006623178e-02 -2.9819316798984223e-04 2.3994043690839909e-04  3.4900707428833940e-04 -4.7825938604190224e-05 4.8010943999987361e-05  8.2237265632868817e-02 -2.6591214795748034e-04 2.5339705818048781e-04  4.5067070149884466e-04 -2.0179259162857669e-05 2.4541621009136541e-05  8.1979153788210593e-02 -2.1010096750408803e-04 -1.5531832629668392e-04  5.1152433978684131e-04 -9.0515828432118671e-06 2.8721746238445954e-05  8.1879028351293653e-02 1.8538607339789530e-04 -1.4808897255982631e-03  -3.8326691709120707e-04 -1.6905295865147775e-05 -1.3761928365087800e-06  -3.9173974271301403e-04 -7.2371794794679117e-06 -7.4462267787533955e-06  -3.9834548857746720e-04 -5.5102828837677382e-06 -7.6912567332503423e-06  -3.9671241380846478e-04 -1.2341428753236363e-05 -7.5869697433751598e-06  -3.3432579499229108e-04 -2.6114584360349000e-05 -7.5737269775095233e-06  -3.5498419881685889e-04 -1.8598692230834283e-05 -1.0517510276960740e-05  -2.5125979336742779e-04 -4.2116249823263626e-05 -9.4108323263505229e-06  -2.8294796515153045e-04 -3.5966849485525076e-05 -1.0521115647965037e-05  -1.3746006046150267e-04 -6.1670178488954544e-05 -6.4871404682925897e-06  -1.7665778349226332e-04 -5.8349239000856222e-05 -5.5171764372354339e-06  -9.3946058699896443e-06 -7.5579915522380159e-05 6.4583138115398301e-07  -5.0774152305968719e-05 -7.6168317176819727e-05 6.1885552459855970e-06  1.1367570768418920e-04 -7.9830988993558096e-05 1.3989329155540363e-05  7.4934942032126823e-05 -8.4664031031466176e-05 2.6725416655137661e-05  2.1525359799625692e-04 -7.2392030359406132e-05 3.1817470303188548e-05  1.7966323938139786e-04 -8.0735608631571240e-05 5.1656924447235662e-05  3.0432529746798220e-04 -5.1317149570432703e-05 3.9832460568566548e-05  2.6013188839400249e-04 -6.1425058766279063e-05 6.2602285912514104e-05  4.3166187229447175e-04 -2.2387876198683752e-05 2.7615009474142617e-05  3.6622383830531768e-04 -3.5237499157276020e-05 4.4365022087403595e-05  5.0528972876044123e-04 -1.5054317915603325e-05 3.7579139481692574e-05  4.3853298039749972e-04 -1.1250352737467870e-05 3.3756763852622030e-05  1.1520053698056618e-01 -1.4881280722253085e-04 -1.2107041678675384e-04  -1.9392873473291544e-04 -1.3929159057760298e-04 -1.1907960556600506e-05  -2.4436850800339804e-04 -9.1718361592870126e-05 -9.6074700484120855e-06  1.1584264028636253e-01 -5.3091408940636074e-04 -9.5381983571363475e-04  1.1557789315282313e-01 -2.0656063167024227e-05 -3.7545344702540675e-05  -1.0948264510141602e-04 -2.3728563206886988e-04 -5.0027579255982241e-06  1.1551924317690605e-01 7.4540195604081992e-05 -1.3946578278816734e-04  2.8405357653987397e-06 -3.4919148760812868e-04 3.4015400911749876e-05  1.1551785384195540e-01 1.9063158607808707e-04 -3.1997745935948870e-04  1.1665450881161925e-04 -4.7149642835607534e-04 1.2955061851108128e-04  1.1565414541964639e-01 3.8046540665544209e-04 -5.9498888504739959e-04  1.7694413230467983e-04 -5.7987058816572415e-04 2.9610879179121712e-04  1.1602187794132199e-01 6.2997965481980853e-04 -9.4318117612621081e-04  1.2440278030327961e-04 -6.1238608429513590e-04 5.0452636818504402e-04  1.1672614245938151e-01 7.7059477482838059e-04 -1.1745944444088343e-03  -7.7489303349371917e-06 -5.0215875914938978e-04 6.2737665791101540e-04  1.1710540267824925e-01 7.4484278180722498e-04 -9.4161759333372770e-04  -1.4212358456090969e-05 -2.8881597532954845e-04 4.4874721984670756e-04  1.1531889274594059e-01 5.1114822085948067e-04 -1.5473480517407771e-04  1.3153016326786969e-04 -1.0787811442152423e-04 1.8857659563013910e-04  1.1321560854678268e-01 -4.2919558707262717e-04 -3.1088616833099890e-03  3.0374481860889042e-04 -7.1847834602913844e-05 2.0732735696885282e-04  1.7011044136085510e-01 2.3249200582763449e-04 -9.1254373398729258e-05  1.7045733742325872e-01 -5.4587277530933397e-04 -1.0228903481451113e-03  1.7040660111734637e-01 2.1346294810808343e-04 7.1934062869349649e-06  1.7051869304898856e-01 2.5897202429419426e-04 -6.1699582583720096e-05  1.7054601462131144e-01 3.7649597351407173e-04 -1.5816285074947650e-04  1.7063228990411192e-01 5.6602530167139983e-04 -2.7495851772123600e-04  1.7084418923318240e-01 7.5829204196821518e-04 -3.8428327213890946e-04  1.7116228391510699e-01 7.5249743739140475e-04 -3.6979512471464477e-04  1.7123934353119474e-01 3.3799051810581089e-04 -1.0433487458862366e-04  1.7034640210546986e-01 -3.6112243400266428e-04 -1.9424584081536992e-04  1.6836530301273406e-01 6.3069023490805161e-06 -3.7088305849360586e-03  1.8869995734659409e-01 1.5260975931464111e-04 -5.3694263353302203e-05  1.8895291000509859e-01 -3.7810995057997520e-04 -9.7895648930392638e-04  1.8895980683902991e-01 2.2571610163811231e-04 4.7929304596274142e-05  1.8910318583247790e-01 2.2787006506613978e-04 -1.7130125707899167e-06  1.8917754071651791e-01 2.6719453271711755e-04 -6.1812951040061560e-05  1.8928220305693480e-01 3.4410648311898931e-04 -1.3187164659722895e-04  1.8944019691585035e-01 4.0452359709190137e-04 -2.1413013396817451e-04  1.8956079134909976e-01 3.3269955017941488e-04 -2.5378252781138973e-04  1.8938554655543094e-01 7.8086988590280924e-06 -1.9331140417331192e-04  1.8876831938767724e-01 -4.8882347166869520e-04 -6.9763901062971055e-04  1.8721227090189582e-01 5.2665214004225051e-05 -3.7172766586269987e-03  1.7014113480604559e-01 1.1973221834545369e-04 -3.8021222705535397e-05  1.7026429996326931e-01 -2.1953316606897262e-04 -9.0655613863467426e-04  1.7038714082037479e-01 1.6404238707362292e-04 5.3948274286457383e-05  1.7051779588048455e-01 1.3329743676646972e-04 1.6340666789233138e-05  1.7059450984523625e-01 1.1114845833312398e-04 -2.3439775318669753e-05  1.7068842294108783e-01 1.0410257593432284e-04 -6.9371229052510937e-05  1.7079147977179723e-01 8.8703980967452852e-05 -1.3529892647608062e-04  1.7078497355692127e-01 2.7862938281291549e-05 -1.9986329240385582e-04  1.7050962140103135e-01 -1.0038097763950452e-04 -2.3799838212477191e-04  1.7010065758926482e-01 -2.2361290179126792e-04 -9.1455100603132148e-04  1.6930159107233697e-01 2.9510909340882798e-04 -3.3663526001983580e-03  1.1517537235210591e-01 3.6591764368542659e-05 -1.3545424360879109e-05  1.1458412256709834e-01 -3.9349791928779511e-04 -7.5274984033256518e-04  1.1537011341038403e-01 4.4024372440276696e-05 4.6025846941869305e-05  1.1543407438204305e-01 -2.7966197115047835e-05 1.8670390771156403e-05  1.1544414515273360e-01 -1.0617987165010809e-04 7.1176616399847740e-06  1.1545136690962673e-01 -1.8050915057101979e-04 1.2610609949927378e-05  1.1545428815901607e-01 -2.5210364648120737e-04 3.1302718641400090e-05  1.1536602893573322e-01 -3.0906167373325800e-04 7.2400464502566576e-05  1.1506165232175164e-01 -3.1488618140645004e-04 6.1906209328383823e-05  1.1462322229790227e-01 -2.6912232760054506e-04 -5.8319712592741566e-04  1.1497617403880436e-01 2.8584157666624433e-04 -2.5264190890104980e-03  -4.0060822552507317e-04 -7.2495008065469787e-06 -7.4266601930479534e-06  -4.0782411668190973e-04 -1.1145164171316714e-05 -6.1998795259899086e-06  -3.6074591849916197e-04 -1.6949863407250104e-05 -1.3558565393440817e-05  -2.8534616863688046e-04 -2.8577436860015154e-05 -1.8193914384585403e-05  -1.7239445120478548e-04 -4.4906190974272386e-05 -1.1918232197249433e-05  -3.6761390316039718e-05 -5.8953056185525792e-05 9.0545304873802420e-06  9.9697605402301469e-05 -6.6530465046473378e-05 4.6476908273967112e-05  2.0442445454626074e-04 -6.4012261664800487e-05 9.2088205131103635e-05  2.5690897640752170e-04 -4.7409508848785942e-05 1.1685778319979928e-04  3.2291917007686900e-04 -2.4849901819994368e-05 9.0799395609222054e-05  3.7649784423268316e-04 -2.9702497574784274e-06 8.0078803990600849e-05  1.2606925117241774e-01 -1.4090723439056862e-04 -3.5504888044957033e-05  -2.0140453121325464e-04 -1.3479817611456615e-04 -2.2684127422228762e-05  -2.5632376313688786e-04 -8.6271428958566721e-05 -1.7152202814223336e-05  1.2668737565587496e-01 -5.2882242909367766e-04 -7.1724998411025129e-04  1.2639616375864121e-01 -6.5061766467606049e-06 8.6634672424053624e-05  -9.6012648881515510e-05 -2.3791882255714126e-04 -2.6091525892270847e-05  1.2628568935828116e-01 8.1639647223104384e-05 3.8926966701481674e-05  6.6124424525700135e-05 -3.7159704312966492e-04 3.8521620741559409e-06  1.2624529466077816e-01 2.0042406863620711e-04 -7.7948072778123825e-05  2.6605594249108763e-04 -5.5108156953916467e-04 1.0578339481331002e-04  1.2634163530595136e-01 4.3906198308958725e-04 -3.2744485749143715e-04  4.3636506811286200e-04 -7.7861726908967405e-04 3.3540157160107185e-04  1.2669758149956964e-01 9.0778119003825984e-04 -7.9115843620992596e-04  4.2000481324026113e-04 -9.9534008700959890e-04 7.4035135895504720e-04  1.2754380684984626e-01 1.5016929621573076e-03 -1.3652685709959092e-03  6.9005664634158928e-05 -1.0363881274119276e-03 1.2421852907039206e-03  1.2873433550720734e-01 1.2140876001726776e-03 -1.5907071549582854e-03  -2.6052387268442139e-04 -7.3989537312991939e-04 1.4539260037758869e-03  1.2629126019294989e-01 9.3103488163089239e-04 -1.2789022047211545e-03  -3.1711659105797713e-04 -3.2239173952735260e-04 5.7886875783025554e-04  1.2129417178563666e-01 5.1849877064181929e-04 -6.1813871813068376e-03  -3.2780162501234934e-04 -2.2331796933760430e-04 7.7783252878022501e-04  1.8865965769723397e-01 2.4345096682286261e-04 -3.2580612442325630e-05  1.8894432326864324e-01 -5.3666135677550293e-04 -7.6485055367840258e-04  1.8892933794622904e-01 2.2528576623697335e-04 1.1392568858609407e-04  1.8903565946889322e-01 2.8058624856368904e-04 7.2519513532840819e-05  1.8908875267727832e-01 4.3255264649740184e-04 -8.4639399377043789e-06  1.8921803243246027e-01 7.2554995083569970e-04 -1.4473189422096726e-04  1.8950229189283574e-01 1.1661191805353514e-03 -3.4973094336193948e-04  1.8993300287855819e-01 1.4716471748985516e-03 -5.1138434181034786e-04  1.9000912816554205e-01 8.5369365180456604e-04 -4.2528278445520080e-04  1.8838784390292115e-01 -7.9620423513097037e-04 -1.4225236963901112e-04  1.8469855125881768e-01 3.7522984896231238e-04 -6.1649742160574611e-03  2.0992319282791772e-01 1.7142696306283827e-04 -6.8643729803447709e-06  2.1010762760366042e-01 -3.5003200339228890e-04 -7.4321298128032906e-04  2.1016020910735439e-01 2.4050418416647206e-04 1.4035830606262052e-04  2.1031567902446091e-01 2.5111603310068112e-04 1.1499817182796474e-04  2.1041725846855197e-01 3.1354930765756429e-04 6.9259406034070822e-05  2.1056303766198284e-01 4.4184255624365526e-04 -9.9840462482934500e-06  2.1080505666004706e-01 5.8698169394956316e-04 -1.6584532347471229e-04  2.1103498447082136e-01 5.5535230093771253e-04 -4.0428950312494769e-04  2.1058631600885994e-01 2.0787808724219405e-06 -6.5106334826546205e-04  2.0890025931744799e-01 -1.0451191969123716e-03 -8.1038124393451462e-04  2.0615062403600676e-01 9.4149418242730755e-05 -5.6256261498886682e-03  1.8865260347640303e-01 1.3550000653332468e-04 -1.2277380812991469e-06  1.8871587563774203e-01 -1.8382605102837605e-04 -7.0127205158222229e-04  1.8887296674079079e-01 1.8189886335376047e-04 1.3647037566305456e-04  1.8901505849522091e-01 1.51636014