<?xml version="1.0"?>
<VTKFile type="UnstructuredGrid"  version="0.1"  >
<UnstructuredGrid>
<Piece  NumberOfPoints="539" NumberOfCells="2160">
<Points>
<DataArray  type="Float64"  NumberOfComponents="3"  format="ascii">0 0.2 0.2  0.1 0.2 0.2  0.1 0.3 0.2  0.1 0.3 0.3  0.1 0.2 0.3  0 0.2 0.3  0 0.3 0.2  0 0.3 0.3  0.2 0.2 0.2  0.2 0.3 0.2  0.2 0.3 0.3  0.2 0.2 0.3  0.3 0.2 0.2  0.3 0.3 0.2  0.3 0.3 0.3  0.3 0.2 0.3  0.4 0.2 0.2  0.4 0.3 0.2  0.4 0.3 0.3  0.4 0.2 0.3  0.5 0.2 0.2  0.5 0.3 0.2  0.5 0.3 0.3  0.5 0.2 0.3  0.6 0.2 0.2  0.6 0.3 0.2  0.6 0.3 0.3  0.6 0.2 0.3  0.7 0.2 0.2  0.7 0.3 0.2  0.7 0.3 0.3  0.7 0.2 0.3  0.8 0.2 0.2  0.8 0.3 0.2  0.8 0.3 0.3  0.8 0.2 0.3  0.9 0.2 0.2  0.9 0.3 0.2  0.9 0.3 0.3  0.9 0.2 0.3  1 0.2 0.2  1 0.3 0.2  1 0.3 0.3  1 0.2 0.3  0.1 0.4 0.2  0.1 0.4 0.3  0 0.4 0.2  0 0.4 0.3  0.2 0.4 0.2  0.2 0.4 0.3  0.3 0.4 0.2  0.3 0.4 0.3  0.4 0.4 0.2  0.4 0.4 0.3  0.5 0.4 0.2  0.5 0.4 0.3  0.6 0.4 0.2  0.6 0.4 0.3  0.7 0.4 0.2  0.7 0.4 0.3  0.8 0.4 0.2  0.8 0.4 0.3  0.9 0.4 0.2  0.9 0.4 0.3  1 0.4 0.2  1 0.4 0.3  0.1 0.5 0.2  0.1 0.5 0.3  0 0.5 0.2  0 0.5 0.3  0.2 0.5 0.2  0.2 0.5 0.3  0.3 0.5 0.2  0.3 0.5 0.3  0.4 0.5 0.2  0.4 0.5 0.3  0.5 0.5 0.2  0.5 0.5 0.3  0.6 0.5 0.2  0.6 0.5 0.3  0.7 0.5 0.2  0.7 0.5 0.3  0.8 0.5 0.2  0.8 0.5 0.3  0.9 0.5 0.2  0.9 0.5 0.3  1 0.5 0.2  1 0.5 0.3  0.1 0.6 0.2  0.1 0.6 0.3  0 0.6 0.2  0 0.6 0.3  0.2 0.6 0.2  0.2 0.6 0.3  0.3 0.6 0.2  0.3 0.6 0.3  0.4 0.6 0.2  0.4 0.6 0.3  0.5 0.6 0.2  0.5 0.6 0.3  0.6 0.6 0.2  0.6 0.6 0.3  0.7 0.6 0.2  0.7 0.6 0.3  0.8 0.6 0.2  0.8 0.6 0.3  0.9 0.6 0.2  0.9 0.6 0.3  1 0.6 0.2  1 0.6 0.3  0.1 0.7 0.2  0.1 0.7 0.3  0 0.7 0.2  0 0.7 0.3  0.2 0.7 0.2  0.2 0.7 0.3  0.3 0.7 0.2  0.3 0.7 0.3  0.4 0.7 0.2  0.4 0.7 0.3  0.5 0.7 0.2  0.5 0.7 0.3  0.6 0.7 0.2  0.6 0.7 0.3  0.7 0.7 0.2  0.7 0.7 0.3  0.8 0.7 0.2  0.8 0.7 0.3  0.9 0.7 0.2  0.9 0.7 0.3  1 0.7 0.2  1 0.7 0.3  0.1 0.8 0.2  0.1 0.8 0.3  0 0.8 0.2  0 0.8 0.3  0.2 0.8 0.2  0.2 0.8 0.3  0.3 0.8 0.2  0.3 0.8 0.3  0.4 0.8 0.2  0.4 0.8 0.3  0.5 0.8 0.2  0.5 0.8 0.3  0.6 0.8 0.2  0.6 0.8 0.3  0.7 0.8 0.2  0.7 0.8 0.3  0.8 0.8 0.2  0.8 0.8 0.3  0.9 0.8 0.2  0.9 0.8 0.3  1 0.8 0.2  1 0.8 0.3  0.1 0.3 0.4  0.1 0.2 0.4  0 0.2 0.4  0 0.3 0.4  0.2 0.3 0.4  0.2 0.2 0.4  0.3 0.3 0.4  0.3 0.2 0.4  0.4 0.3 0.4  0.4 0.2 0.4  0.5 0.3 0.4  0.5 0.2 0.4  0.6 0.3 0.4  0.6 0.2 0.4  0.7 0.3 0.4  0.7 0.2 0.4  0.8 0.3 0.4  0.8 0.2 0.4  0.9 0.3 0.4  0.9 0.2 0.4  1 0.3 0.4  1 0.2 0.4  0.1 0.4 0.4  0 0.4 0.4  0.2 0.4 0.4  0.3 0.4 0.4  0.4 0.4 0.4  0.5 0.4 0.4  0.6 0.4 0.4  0.7 0.4 0.4  0.8 0.4 0.4  0.9 0.4 0.4  1 0.4 0.4  0.1 0.5 0.4  0 0.5 0.4  0.2 0.5 0.4  0.3 0.5 0.4  0.4 0.5 0.4  0.5 0.5 0.4  0.6 0.5 0.4  0.7 0.5 0.4  0.8 0.5 0.4  0.9 0.5 0.4  1 0.5 0.4  0.1 0.6 0.4  0 0.6 0.4  0.2 0.6 0.4  0.3 0.6 0.4  0.4 0.6 0.4  0.5 0.6 0.4  0.6 0.6 0.4  0.7 0.6 0.4  0.8 0.6 0.4  0.9 0.6 0.4  1 0.6 0.4  0.1 0.7 0.4  0 0.7 0.4  0.2 0.7 0.4  0.3 0.7 0.4  0.4 0.7 0.4  0.5 0.7 0.4  0.6 0.7 0.4  0.7 0.7 0.4  0.8 0.7 0.4  0.9 0.7 0.4  1 0.7 0.4  0.1 0.8 0.4  0 0.8 0.4  0.2 0.8 0.4  0.3 0.8 0.4  0.4 0.8 0.4  0.5 0.8 0.4  0.6 0.8 0.4  0.7 0.8 0.4  0.8 0.8 0.4  0.9 0.8 0.4  1 0.8 0.4  0.1 0.3 0.5  0.1 0.2 0.5  0 0.2 0.5  0 0.3 0.5  0.2 0.3 0.5  0.2 0.2 0.5  0.3 0.3 0.5  0.3 0.2 0.5  0.4 0.3 0.5  0.4 0.2 0.5  0.5 0.3 0.5  0.5 0.2 0.5  0.6 0.3 0.5  0.6 0.2 0.5  0.7 0.3 0.5  0.7 0.2 0.5  0.8 0.3 0.5  0.8 0.2 0.5  0.9 0.3 0.5  0.9 0.2 0.5  1 0.3 0.5  1 0.2 0.5  0.1 0.4 0.5  0 0.4 0.5  0.2 0.4 0.5  0.3 0.4 0.5  0.4 0.4 0.5  0.5 0.4 0.5  0.6 0.4 0.5  0.7 0.4 0.5  0.8 0.4 0.5  0.9 0.4 0.5  1 0.4 0.5  0.1 0.5 0.5  0 0.5 0.5  0.2 0.5 0.5  0.3 0.5 0.5  0.4 0.5 0.5  0.5 0.5 0.5  0.6 0.5 0.5  0.7 0.5 0.5  0.8 0.5 0.5  0.9 0.5 0.5  1 0.5 0.5  0.1 0.6 0.5  0 0.6 0.5  0.2 0.6 0.5  0.3 0.6 0.5  0.4 0.6 0.5  0.5 0.6 0.5  0.6 0.6 0.5  0.7 0.6 0.5  0.8 0.6 0.5  0.9 0.6 0.5  1 0.6 0.5  0.1 0.7 0.5  0 0.7 0.5  0.2 0.7 0.5  0.3 0.7 0.5  0.4 0.7 0.5  0.5 0.7 0.5  0.6 0.7 0.5  0.7 0.7 0.5  0.8 0.7 0.5  0.9 0.7 0.5  1 0.7 0.5  0.1 0.8 0.5  0 0.8 0.5  0.2 0.8 0.5  0.3 0.8 0.5  0.4 0.8 0.5  0.5 0.8 0.5  0.6 0.8 0.5  0.7 0.8 0.5  0.8 0.8 0.5  0.9 0.8 0.5  1 0.8 0.5  0.1 0.3 0.6  0.1 0.2 0.6  0 0.2 0.6  0 0.3 0.6  0.2 0.3 0.6  0.2 0.2 0.6  0.3 0.3 0.6  0.3 0.2 0.6  0.4 0.3 0.6  0.4 0.2 0.6  0.5 0.3 0.6  0.5 0.2 0.6  0.6 0.3 0.6  0.6 0.2 0.6  0.7 0.3 0.6  0.7 0.2 0.6  0.8 0.3 0.6  0.8 0.2 0.6  0.9 0.3 0.6  0.9 0.2 0.6  1 0.3 0.6  1 0.2 0.6  0.1 0.4 0.6  0 0.4 0.6  0.2 0.4 0.6  0.3 0.4 0.6  0.4 0.4 0.6  0.5 0.4 0.6  0.6 0.4 0.6  0.7 0.4 0.6  0.8 0.4 0.6  0.9 0.4 0.6  1 0.4 0.6  0.1 0.5 0.6  0 0.5 0.6  0.2 0.5 0.6  0.3 0.5 0.6  0.4 0.5 0.6  0.5 0.5 0.6  0.6 0.5 0.6  0.7 0.5 0.6  0.8 0.5 0.6  0.9 0.5 0.6  1 0.5 0.6  0.1 0.6 0.6  0 0.6 0.6  0.2 0.6 0.6  0.3 0.6 0.6  0.4 0.6 0.6  0.5 0.6 0.6  0.6 0.6 0.6  0.7 0.6 0.6  0.8 0.6 0.6  0.9 0.6 0.6  1 0.6 0.6  0.1 0.7 0.6  0 0.7 0.6  0.2 0.7 0.6  0.3 0.7 0.6  0.4 0.7 0.6  0.5 0.7 0.6  0.6 0.7 0.6  0.7 0.7 0.6  0.8 0.7 0.6  0.9 0.7 0.6  1 0.7 0.6  0.1 0.8 0.6  0 0.8 0.6  0.2 0.8 0.6  0.3 0.8 0.6  0.4 0.8 0.6  0.5 0.8 0.6  0.6 0.8 0.6  0.7 0.8 0.6  0.8 0.8 0.6  0.9 0.8 0.6  1 0.8 0.6  0.1 0.3 0.7  0.1 0.2 0.7  0 0.2 0.7  0 0.3 0.7  0.2 0.3 0.7  0.2 0.2 0.7  0.3 0.3 0.7  0.3 0.2 0.7  0.4 0.3 0.7  0.4 0.2 0.7  0.5 0.3 0.7  0.5 0.2 0.7  0.6 0.3 0.7  0.6 0.2 0.7  0.7 0.3 0.7  0.7 0.2 0.7  0.8 0.3 0.7  0.8 0.2 0.7  0.9 0.3 0.7  0.9 0.2 0.7  1 0.3 0.7  1 0.2 0.7  0.1 0.4 0.7  0 0.4 0.7  0.2 0.4 0.7  0.3 0.4 0.7  0.4 0.4 0.7  0.5 0.4 0.7  0.6 0.4 0.7  0.7 0.4 0.7  0.8 0.4 0.7  0.9 0.4 0.7  1 0.4 0.7  0.1 0.5 0.7  0 0.5 0.7  0.2 0.5 0.7  0.3 0.5 0.7  0.4 0.5 0.7  0.5 0.5 0.7  0.6 0.5 0.7  0.7 0.5 0.7  0.8 0.5 0.7  0.9 0.5 0.7  1 0.5 0.7  0.1 0.6 0.7  0 0.6 0.7  0.2 0.6 0.7  0.3 0.6 0.7  0.4 0.6 0.7  0.5 0.6 0.7  0.6 0.6 0.7  0.7 0.6 0.7  0.8 0.6 0.7  0.9 0.6 0.7  1 0.6 0.7  0.1 0.7 0.7  0 0.7 0.7  0.2 0.7 0.7  0.3 0.7 0.7  0.4 0.7 0.7  0.5 0.7 0.7  0.6 0.7 0.7  0.7 0.7 0.7  0.8 0.7 0.7  0.9 0.7 0.7  1 0.7 0.7  0.1 0.8 0.7  0 0.8 0.7  0.2 0.8 0.7  0.3 0.8 0.7  0.4 0.8 0.7  0.5 0.8 0.7  0.6 0.8 0.7  0.7 0.8 0.7  0.8 0.8 0.7  0.9 0.8 0.7  1 0.8 0.7  0.1 0.3 0.8  0.1 0.2 0.8  0 0.2 0.8  0 0.3 0.8  0.2 0.3 0.8  0.2 0.2 0.8  0.3 0.3 0.8  0.3 0.2 0.8  0.4 0.3 0.8  0.4 0.2 0.8  0.5 0.3 0.8  0.5 0.2 0.8  0.6 0.3 0.8  0.6 0.2 0.8  0.7 0.3 0.8  0.7 0.2 0.8  0.8 0.3 0.8  0.8 0.2 0.8  0.9 0.3 0.8  0.9 0.2 0.8  1 0.3 0.8  1 0.2 0.8  0.1 0.4 0.8  0 0.4 0.8  0.2 0.4 0.8  0.3 0.4 0.8  0.4 0.4 0.8  0.5 0.4 0.8  0.6 0.4 0.8  0.7 0.4 0.8  0.8 0.4 0.8  0.9 0.4 0.8  1 0.4 0.8  0.1 0.5 0.8  0 0.5 0.8  0.2 0.5 0.8  0.3 0.5 0.8  0.4 0.5 0.8  0.5 0.5 0.8  0.6 0.5 0.8  0.7 0.5 0.8  0.8 0.5 0.8  0.9 0.5 0.8  1 0.5 0.8  0.1 0.6 0.8  0 0.6 0.8  0.2 0.6 0.8  0.3 0.6 0.8  0.4 0.6 0.8  0.5 0.6 0.8  0.6 0.6 0.8  0.7 0.6 0.8  0.8 0.6 0.8  0.9 0.6 0.8  1 0.6 0.8  0.1 0.7 0.8  0 0.7 0.8  0.2 0.7 0.8  0.3 0.7 0.8  0.4 0.7 0.8  0.5 0.7 0.8  0.6 0.7 0.8  0.7 0.7 0.8  0.8 0.7 0.8  0.9 0.7 0.8  1 0.7 0.8  0.1 0.8 0.8  0 0.8 0.8  0.2 0.8 0.8  0.3 0.8 0.8  0.4 0.8 0.8  0.5 0.8 0.8  0.6 0.8 0.8  0.7 0.8 0.8  0.8 0.8 0.8  0.9 0.8 0.8  1 0.8 0.8  </DataArray>
</Points>
<Cells>
[...]
<PointData  Vectors="f_23"> 
<DataArray  type="Float64"  Name="f_23"  NumberOfComponents="3" format="ascii">-7.7433366364666831e-04 1.2890254760049174e-05 3.8557596269046124e-04  -8.6336056551675634e-04 1.7023337109035646e-05 5.3755841256981451e-04  -8.6844200125067012e-04 2.6896455648485747e-05 4.9481322881254723e-04  -1.6367615661004739e-02 -2.4406771071685790e-05 1.0904448999043276e-04  -6.9291035412336131e-04 2.6741803804208429e-05 4.7918446582220845e-04  -5.8963559937241403e-04 3.8363376975545559e-05 3.3815112297581618e-04  -7.9879076970457694e-04 2.2190206555011559e-05 3.7644319150071954e-04  -1.6195152643366927e-02 -3.0733495625061126e-05 1.3667604533344277e-04  -1.0077980245166217e-03 -5.7371139166354972e-06 7.9280349560972505e-04  -9.9176336624088083e-04 1.2166746112867392e-05 7.5839819273829697e-04  -1.6636137957370754e-02 -6.6331818607374824e-05 2.7277748250133943e-04  -8.4025852273989573e-04 2.2507264337502062e-05 7.4926104038613333e-04  -1.2045380025260083e-03 -4.0663609187655297e-05 1.0190672942422376e-03  -1.1967337471043143e-03 -1.3184353065790404e-05 1.0027707325152182e-03  -1.6746967348438890e-02 -1.3958094748517979e-04 3.4772692683517542e-04  -1.0642635095377590e-03 9.9870960051112767e-06 9.9370798173047223e-04  -1.2765023461490629e-03 -9.0893194591963228e-05 1.1772715511317556e-03  -1.3044939815491767e-03 -5.2641126148936945e-05 1.1913860130987591e-03  -1.6805438503583257e-02 -2.7156570998723673e-04 3.5322076146132597e-04  -1.2219221227696988e-03 -7.5359517055315487e-06 1.1813567295931248e-03  -1.0493496841020114e-03 -1.5426741485999134e-04 1.2161536198825470e-03  -1.1456848473048638e-03 -1.0348537787355809e-04 1.2780754043607348e-03  -1.6749278426309275e-02 -4.6853027886805109e-04 2.8952510473486759e-04  -1.1477298060005013e-03 -2.4382450626237014e-05 1.2579260381159103e-03  -3.6251513733556609e-04 -2.2926267983230475e-04 1.0958687961706019e-03  -5.5804240171354071e-04 -1.6261609176242839e-04 1.2122674309532260e-03  -1.6448319622044849e-02 -7.2220944077495020e-04 1.2316457844616143e-04  -6.5596011644721485e-04 -5.0627769544399424e-05 1.1776816513057362e-03  8.8383047479530328e-04 -3.0455158269522147e-04 8.3601362973318837e-04  5.8078199851947343e-04 -2.2459600230214058e-04 9.8466285347952997e-04  -1.5645430337051548e-02 -1.0012895723574310e-03 -2.7850146349783637e-04  3.9564338804472791e-04 -1.1954168105205325e-04 9.6057120682877667e-04  2.5828585312528164e-03 -3.0194765630967143e-04 4.7828120885618874e-04  2.2434894168500480e-03 -2.5347996620106651e-04 6.2143096774013474e-04  -1.3982738462039179e-02 -1.2540415053855385e-03 -1.2277103884153957e-03  1.9867270511890831e-03 -2.0412423391505914e-04 6.1843237625616742e-04  3.9589728818478082e-03 -1.2256410299680997e-04 1.8623022364199531e-04  3.8620997462012639e-03 -1.3656715510730746e-04 2.5144692088800540e-04  -1.1298475808775363e-02 -1.4997219865945069e-03 -2.6168590417060692e-03  3.5531394727237402e-03 -1.6223661619314700e-04 2.2852509585955013e-04  4.7981067655116011e-03 -3.6618462765022561e-04 1.4504898565147678e-04  4.7095483426927588e-03 -2.7495134240933798e-04 2.9074721982930260e-04  -8.9336348539035739e-03 -1.2730821217395347e-03 -2.2562685279294403e-03  4.4935792053741172e-03 -2.3615925692962487e-04 1.5937960748007297e-04  -8.5114602112163287e-04 7.3427055969221432e-05 4.9861998172478638e-04  2.8952110222264594e-03 -1.4442323302022296e-05 2.2673346171872463e-05  -7.7150592829874139e-04 6.4910971332326448e-05 3.8170699560626702e-04  2.7684004352295137e-03 -1.5509862526889914e-05 3.4833184221492089e-05  -9.8944536883663727e-04 8.9243848235473247e-05 7.7077478563903777e-04  2.6857342814502654e-03 -6.5148298764560868e-05 1.2738359031356169e-04  -1.2099514184055970e-03 9.4275275984514052e-05 1.0231802971790026e-03  2.6253423417208783e-03 -1.3812306333879830e-04 1.1043212054709286e-04  -1.3317971652985654e-03 8.6922598611442146e-05 1.2252265475141450e-03  2.5969442649731562e-03 -2.6005790358210162e-04 -5.5685753954643140e-06  -1.1872697741477922e-03 6.7558357710220202e-05 1.3330102551892470e-03  2.6527777924812762e-03 -4.4155949673085475e-04 -2.1867335377909723e-04  -6.1524084602134171e-04 3.7740378575929714e-05 1.2944164506047237e-03  2.9148423974822051e-03 -6.8169245670261541e-04 -5.6259302755207890e-04  5.1635112351434379e-04 6.9026776146072497e-07 1.0845957598673800e-03  3.6403583049703495e-03 -9.4289139590760440e-04 -1.1760728827565179e-03  2.2208116265765880e-03 -3.8140346632437879e-05 7.0910517143703072e-04  5.1399724253254680e-03 -1.1510806307641714e-03 -2.3533807289905090e-03  4.0115421770920675e-03 -6.0591575405068133e-05 3.1716715074814236e-04  7.5028713186828218e-03 -1.2149789619705759e-03 -3.9951748117605761e-03  4.8749035119528654e-03 -1.2705069097653315e-04 4.1547742128291907e-04  9.8072230119522312e-03 -1.4536393178712077e-03 -3.5848489514518872e-03  -7.9638090329821375e-04 1.2909433446397478e-04 4.7756580603097081e-04  1.2173696655324062e-02 5.0294144912449550e-05 1.6214187611233343e-05  -7.0074930586784263e-04 1.0937936491706459e-04 3.6154759099211114e-04  1.2048041934284066e-02 5.2744970035625882e-05 4.1231607990830572e-05  -9.5257934691935528e-04 1.9460378463524602e-04 7.3830333694481270e-04  1.1981895241104264e-02 3.0937384634178890e-05 1.0434928090362707e-04  -1.1860652443928458e-03 2.4997083122106661e-04 9.7941598553617608e-04  1.1926263920848564e-02 6.6521509497564109e-06 6.1154538863692983e-05  -1.3215026384095147e-03 2.9427075117818493e-04 1.1736549407926459e-03  1.1873332818616869e-02 -2.8130442637919282e-05 -9.5836932174388415e-05  -1.1926066417046611e-03 3.2141976963131992e-04 1.2813546573769595e-03  1.1878720452191922e-02 -8.6121932431961257e-05 -3.7538782598047383e-04  -6.3859220031301964e-04 3.2537184821815264e-04 1.2547974464989142e-03  1.2086085147246840e-02 -1.8169671401993467e-04 -8.2354748588599615e-04  4.6476508756979062e-04 3.0549508591693505e-04 1.0599173901163039e-03  1.2758715291357870e-02 -3.0967245720905581e-04 -1.6146989712902213e-03  2.1333952078684010e-03 2.4653550139499441e-04 7.0296995651538882e-04  1.4216569624646874e-02 -4.3165470005498312e-04 -2.9018470476922368e-03  3.9828074328136266e-03 7.1995998578725437e-05 3.4275123941454507e-04  1.6599487168343620e-02 -4.6291404787209152e-04 -4.5258721449776664e-03  4.8367366885667179e-03 1.2892307788068923e-04 4.4863180381780670e-04  1.8911210220473502e-02 -6.7539464760826113e-04 -4.2250284151233381e-03  -7.0139430564223032e-04 1.5429239191252695e-04 4.2528143879588104e-04  3.0041855263628009e-03 1.1590515148420796e-04 5.2091094398363529e-05  -5.9512735954273790e-04 1.1836848629110783e-04 3.1751565262466621e-04  2.9849628262024024e-03 1.6196266200344358e-04 9.2803559718631306e-05  -8.7336006588188014e-04 2.5842390973674191e-04 6.5716554957621800e-04  2.8576098401622441e-03 1.1939305651011805e-04 1.3608016511652607e-04  -1.1132931519511086e-03 3.5693979617349358e-04 8.6862207273686654e-04  2.8527818204019178e-03 1.4829830882680158e-04 1.0172301319046797e-04  -1.2637653042757403e-03 4.5185231786581205e-04 1.0356297756607563e-03  2.8469182791585417e-03 2.1475335972615092e-04 -4.0402059867411949e-05  -1.1635889220486624e-03 5.3050848100781622e-04 1.1230555473502779e-03  2.9030025072710772e-03 3.0766172380870864e-04 -3.1029856230245257e-04  -6.4727179917765899e-04 5.7411901754616612e-04 1.0862394810723438e-03  3.1644339693784277e-03 4.0562378397004532e-04 -7.7257654619802666e-04  4.0189268211374048e-04 5.6805387802915015e-04 8.9839309188457725e-04  3.8883517002190333e-03 4.7352148270316159e-04 -1.5705722591338020e-03  1.9718855894509200e-03 4.8454519282002852e-04 5.9376880918621602e-04  5.3800173136877103e-03 5.0211016192456040e-04 -2.7328292241767631e-03  3.7430055973085774e-03 2.1158370544565840e-04 3.0628168286553006e-04  7.7639431222056776e-03 5.1422236199320142e-04 -4.1716112663352399e-03  4.5368736803440323e-03 3.4741157070633381e-04 3.7992670211109631e-04  9.8640100365604676e-03 3.2705230253879728e-04 -3.9450597652258652e-03  -6.0902454612262694e-04 1.4096219507448023e-04 3.6290355887709334e-04  -1.5899393457668550e-02 1.4928394340322606e-04 1.7767580317222076e-04  -5.1250954410730866e-04 8.9601499560945370e-05 2.6139153092388150e-04  -1.5757086554274734e-02 3.5967900111004295e-04 2.3683281477484175e-04  -7.9238948302212068e-04 2.5846433379727354e-04 5.6154949718819898e-04  -1.5921957348791010e-02 1.4342908912042589e-04 2.7195931451776443e-04  -1.0305699762844869e-03 3.7273237172713206e-04 7.4381854223696425e-04  -1.5854253384046457e-02 2.1375506581001514e-04 3.0499935064589543e-04  -1.1924380706320801e-03 4.8997019255012423e-04 8.8780039708356666e-04  -1.5768705002016447e-02 3.4405139549472953e-04 2.5831264492339834e-04  -1.1298089284854497e-03 5.9768463761788635e-04 9.6368755509902487e-04  -1.5569270226654419e-02 5.2809039237601335e-04 1.0422672937948545e-04  -6.7990862141297664e-04 6.6967495548469612e-04 9.3221459826767260e-04  -1.5129795691431948e-02 7.4854163043132436e-04 -2.1452231444908342e-04  2.9300347083822308e-04 6.7655900982597345e-04 7.7128656496447975e-04  -1.4252347861724371e-02 9.5508354811218966e-04 -7.6648753301122397e-04  1.7863722859165630e-03 5.9213687776708064e-04 5.0959949049102422e-04  -1.2685712836693938e-02 1.0926913867655617e-03 -1.6088245354315917e-03  3.3828413316354059e-03 3.6185909614464695e-04 2.5884882312706521e-04  -1.0403262856801864e-02 1.1659376446035560e-03 -2.6580278644556346e-03  4.1399630590545607e-03 3.4820076025227894e-04 2.5148627977902816e-04  -8.7925998669709030e-03 8.4512175952169760e-04 -2.3804029135978517e-03  -5.9072028836982724e-04 1.0854854936748501e-04 2.7229446554915388e-04  -4.9687249230609290e-04 7.6396551204646520e-05 2.4140127132536571e-04  -5.9873217496951927e-04 1.2353906488536855e-04 1.4974327312645806e-04  -4.4488134963102986e-04 7.7484487510882119e-05 1.7468936798118093e-04  -7.2811312142092503e-04 2.1393574282090280e-04 4.5502550567822218e-04  -6.8982453490747998e-04 1.8781875710777740e-04 4.5453747924576387e-04  -9.7629186117522326e-04 3.1795837997144159e-04 6.3644996701228153e-04  -8.9643101891526025e-04 2.9892192775102022e-04 6.4332784899688523e-04  -1.1913320344479048e-03 4.2717440943469914e-04 7.8504802003763420e-04  -1.1236347476926000e-03 4.1234496744601786e-04 8.0802902922163936e-04  -1.2320723403824640e-03 5.3306906196284431e-04 8.7905100126833488e-04  -1.2448570720740438e-03 5.2569921933835436e-04 9.2734742053825322e-04  -9.3843037375448502e-04 6.1095320149521766e-04 8.8125032721211893e-04  -1.0961160407852312e-03 6.1836929043599526e-04 9.6291262235033317e-04  -1.6497616937310455e-04 6.2751420886578439e-04 7.6524296388132606e-04  -5.1467050620375985e-04 6.5995772197674398e-04 8.7798692468807425e-04  1.1751059065185255e-03 5.4737527678514147e-04 5.4838732781516445e-04  6.1790300039205103e-04 6.1907375402344355e-04 6.6483981924781973e-04  2.9643772503968290e-03 3.5409324369536422e-04 3.1697096295986796e-04  2.2604642938278746e-03 4.9108587675447896e-04 3.8109979764450414e-04  3.8994523401514303e-03 2.8851684836198998e-04 2.1954449226972865e-04  3.3396846860570140e-03 4.8033363200320058e-04 2.1490442548718542e-04  3.1069055792540281e-03 8.2958464527309414e-05 -4.5979195061609905e-05  -3.9387817273869223e-04 5.8819386489545365e-05 4.6193765625999258e-04  -2.7757647566904248e-04 5.9978011958373745e-05 3.2636963676221139e-04  3.0039699831383186e-03 5.9894960052173169e-05 8.8300174419709908e-05  2.8856637325765356e-03 1.7451257928173211e-05 1.3100919226744639e-04  -5.7095368404143528e-04 7.8182658609818746e-05 7.4742764993662681e-04  2.8357005998091819e-03 -5.8972655869357953e-05 1.8476748867343528e-04  -8.3041525566249100e-04 9.7311433321836262e-05 1.0221094883397187e-03  2.8086163621188838e-03 -1.9680634849206162e-04 1.6287142564896419e-04  -1.0670587056822527e-03 1.3091417554438818e-04 1.2519749520896477e-03  2.7810093218988770e-03 -4.2916093464935156e-04 1.0961896337792459e-04  -1.1363036246309238e-03 1.9618125957428467e-04 1.3757449207199720e-03  2.7670313004040928e-03 -7.9100579399875423e-04 5.5808553419402832e-05  -8.3557818266380565e-04 2.7982595209796594e-04 1.3300164168215300e-03  2.9157809257287868e-03 -1.2878634503793414e-03 -1.4864924499762998e-04  5.1086306621421780e-05 2.7282994258038759e-04 1.1522706255169370e-03  3.6982257479242463e-03 -1.8240300022774397e-03 -1.2574174521821535e-03  1.6113438004288798e-03 6.1939533586468742e-05 1.0066284667399844e-03  5.5283817352846393e-03 -2.3281772993318335e-03 -3.5384897099781875e-03  3.2487960053727547e-03 -3.5771569699966598e-05 2.3919641962588889e-04  6.7638821833734724e-03 -1.6556085694288229e-03 -2.2638915154276199e-03  4.0457548204135127e-03 -1.0666073286937621e-04 3.1507572269539230e-04  3.9416299158969444e-02 3.0172738004539264e-05 -2.4534645292595051e-04  3.9386783806420730e-02 5.1180831765142386e-05 -9.1522313778236706e-05  3.9292115781985888e-02 -2.5826055034213372e-05 -1.0001854973492093e-04  3.9277683456405851e-02 -1.2014215111850839e-04 -1.6447869789126669e-04  3.9243704775477339e-02 -2.8741642551877519e-04 -3.6837681053942666e-04  3.9122720938022347e-02 -5.7166682076678719e-04 -6.6717439676233900e-04  3.8903085113976381e-02 -1.0187326962636139e-03 -1.0403833588684547e-03  3.8725676749156980e-02 -1.6261970640913356e-03 -1.6687360970434391e-03  3.8974244812431814e-02 -2.1770772312485012e-03 -3.3635557238868058e-03  3.9966146084465283e-02 -2.3102678707580845e-03 -6.2873136169226225e-03  4.1014615520424368e-02 -2.5644343394945223e-03 -5.3559794450634308e-03  5.5616453437737967e-02 5.4485654877416798e-05 -2.7075208119914222e-04  5.5674358891449678e-02 8.1642836131655370e-05 -1.0827786201618846e-04  5.5526478264565339e-02 1.1318944709981834e-05 -1.3231805248252370e-04  5.5516317726601823e-02 -4.6809940211738216e-05 -2.3308284593682722e-04  5.5426510340539498e-02 -1.3241850596603920e-04 -5.0549308794438396e-04  5.5186007519623409e-02 -2.8436684561680833e-04 -9.3268323959908874e-04  5.4769449288643995e-02 -5.5836090506095146e-04 -1.5461714642406750e-03  5.4397165893110042e-02 -9.6632605421681853e-04 -2.5518199337765468e-03  5.4471632260879831e-02 -1.3634064951418875e-03 -4.7503136672074672e-03  5.5432032307939992e-02 -1.3938797131760440e-03 -7.7680064628935968e-03  5.6472199688705808e-02 -1.6746805444429807e-03 -7.1595772999920905e-03  3.9327778388079548e-02 1.0274524211351872e-04 -2.1297207770821746e-04  3.9516446619235708e-02 1.7766109402784041e-04 -5.1696819157352865e-05  3.9306756803174227e-02 6.9286009927581774e-05 -6.3800888470075430e-05  3.9367904324340938e-02 6.6585168916915910e-05 -1.4314852434204792e-04  3.9345048237196964e-02 1.0490871464074409e-04 -3.8780202288614212e-04  3.9180633864275262e-02 1.5930091633414324e-04 -7.9750922748183790e-04  3.8869568745757713e-02 1.8034796966509719e-04 -1.4541700600672089e-03  3.8631166151900626e-02 1.3338076708548752e-04 -2.6509499733457808e-03  3.8919522259353759e-02 2.7158440292116266e-05 -4.9234092087189416e-03  4.0095211889762478e-02 5.7596418810337073e-05 -7.3510824698600338e-03  4.0971636613109527e-02 -2.7543997328549922e-04 -6.9371994455558793e-03  3.0200225877271797e-03 1.2485899019310963e-04 -4.2698832865518140e-05  3.3550597225582707e-03 3.6286699364923813e-04 1.0912992433091052e-04  3.1133804226369530e-03 9.1497396245635338e-05 1.2439543905872017e-04  3.2516788866156859e-03 1.4779275362598299e-04 1.3719475998010265e-04  3.3688193035657193e-03 2.7529006363852644e-04 3.4006347324802944e-05  3.4708883923781440e-03 4.6569478253746647e-04 -1.9541156532014342e-04  3.5890633891682896e-03 6.8984678597570242e-04 -6.2591348327180156e-04  3.8352312871223308e-03 8.9993202470698840e-04 -1.4744968665394726e-03  4.5992430872104457e-03 9.9868066488519838e-04 -2.7805706938225190e-03  6.2308993325509605e-03 1.1204288484092139e-03 -4.5170319828871600e-03  6.7942659405580410e-03 5.0199138689730491e-04 -4.0057790832878212e-03  -2.3146244840569001e-04 5.0188315372287226e-05 2.0799719372281624e-04  -1.7185431110825996e-04 5.3252078870924905e-05 2.1714547651927076e-04  -4.5711852320543423e-04 1.2294706601412579e-04 4.7520268102303195e-04  -7.0227418698898324e-04 2.0501098990965223e-04 7.1518931475399899e-04  -9.5201093966114445e-04 2.9135275824804675e-04 9.3695958226066027e-04  -1.1255344882313233e-03 3.8477102665140510e-04 1.1260491509963062e-03  -1.0842650784913034e-03 4.7383920333497146e-04 1.2389229829504120e-03  -6.6478683720940077e-04 5.3328400653800481e-04 1.2186440217747570e-03  2.8830023740945610e-04 5.2539174620380550e-04 1.0208799489008966e-03  1.8487031008982415e-03 4.1008417841512459e-04 6.5247721653333873e-04  2.9298943622819507e-03 3.8934713381374807e-04 4.2997238927262377e-04  1.2542279836022326e-02 1.4223332576971290e-04 -1.0776656294735583e-04  -9.0785395379346348e-05 8.6325883690773386e-05 4.1987640385405086e-04  3.0530636922033541e-05 7.5224671013411092e-05 2.8717698292765311e-04  1.2439221023461748e-02 1.3210035812463486e-04 3.0748803224527815e-05  1.2329889980729579e-02 8.1291892941128636e-05 6.0505661905603262e-05  -2.7619816751795503e-04 1.2726469695945836e-04 7.0785064345449075e-04  1.2290670991895764e-02 1.8800162513470616e-05 1.0318298827320861e-04  -5.5000525761926132e-04 1.7980356834849603e-04 1.0056513564961180e-03  1.2259417337343270e-02 -1.1070805744994026e-04 6.8330507090292491e-05  -8.4058034417442340e-04 2.7105406322373821e-04 1.2852953184856279e-03  1.2163750927033567e-02 -3.8153806275386374e-04 3.2320572922652885e-05  -1.0393054643569649e-03 4.4284462717397157e-04 1.4784313684990049e-03  1.1843494746232168e-02 -9.0428867350215395e-04 1.6481681358203540e-04  -9.5299370187686269e-04 7.1684370314399571e-04 1.4887380109346432e-03  1.1171947774352280e-02 -1.8123288724712003e-03 6.6167316303882581e-04  -2.5847353801113060e-04 9.5585322674745816e-04 1.3669137893380042e-03  1.0948579824568115e-02 -3.0910655495782128e-03 9.9991238589090315e-04  1.2191638681882419e-03 6.1999645908886669e-04 1.7574762862418325e-03  1.1896937034153607e-02 -4.0423710331261610e-03 -1.7110540882903360e-03  3.0245707572085405e-03 2.0365948131534421e-04 1.0011672790753289e-03  1.1697242836226881e-02 -3.6373341945349063e-03 1.8984308175861617e-03  3.6743113543265624e-03 7.7234335775936230e-05 3.2702421145052737e-04  5.5737965090878527e-02 8.0692988210499588e-05 -3.2453346823367650e-04  5.5807332589797788e-02 1.0922255816715554e-04 -1.6344658468796607e-04  5.5620817149622269e-02 2.9509292324412189e-05 -1.9067725342731835e-04  5.5599614776416638e-02 -7.2602748411530456e-05 -2.6689287178655296e-04  5.5500712691090540e-02 -2.7253624255220801e-04 -4.9736943077838464e-04  5.5188349307696831e-02 -6.7169389084820272e-04 -8.1407206036139665e-04  5.4425310845255946e-02 -1.4255916826392235e-03 -1.0602859559235326e-03  5.3013590154366221e-02 -2.6475037229257690e-03 -1.0621957445679155e-03  5.1531140320257941e-02 -4.0933283872557936e-03 -1.5392601736886685e-03  5.0433133156124244e-02 -4.6895266733109568e-03 -5.4672394693702038e-03  4.9056509931938524e-02 -5.3930746683265723e-03 -3.1433859175770793e-03  7.4496427182755107e-02 5.7728547367934066e-05 -3.8079013963205293e-04  7.4693064214602548e-02 9.4731053057040340e-05 -2.0778464570110676e-04  7.4415522678640392e-02 1.8342936213140237e-05 -2.4746498918020642e-04  7.4381197975583901e-02 -5.6408230391348963e-05 -3.6217097827003218e-04  7.4178261690393668e-02 -1.8053725794249637e-04 -6.7294651109517649e-04  7.3636452910564254e-02 -4.2871730924435740e-04 -1.1498544778269183e-03  7.2521919518577935e-02 -9.4757505733908268e-04 -1.7253008165607870e-03  7.0563424887619755e-02 -1.8697800129628751e-03 -2.3890880877336421e-03  6.8489837806287118e-02 -2.9289153345820728e-03 -3.9573961839557605e-03  6.6995492801542225e-02 -3.0032197905835480e-03 -8.5972877529792904e-03  6.5433480907472627e-02 -3.6246323158942765e-03 -7.0784146216146433e-03  5.5522824777635295e-02 7.2383410006322718e-05 -3.4645174076069780e-04  5.5846670394514894e-02 1.5099050152452665e-04 -1.8473288260327717e-04  5.5511253743919582e-02 3.4210536423310190e-05 -1.9931481440785124e-04  5.5545594401150249e-02 1.7279500596117786e-05 -2.9536911269640459e-04  5.5412924093907988e-02 2.8317330895180044e-