<?xml version="1.0"?>
<VTKFile type="UnstructuredGrid"  version="0.1"  >
<UnstructuredGrid>
<Piece  NumberOfPoints="539" NumberOfCells="2160">
<Points>
<DataArray  type="Float64"  NumberOfComponents="3"  format="ascii">0 0.2 0.2  0.1 0.2 0.2  0.1 0.3 0.2  0.1 0.3 0.3  0.1 0.2 0.3  0 0.2 0.3  0 0.3 0.2  0 0.3 0.3  0.2 0.2 0.2  0.2 0.3 0.2  0.2 0.3 0.3  0.2 0.2 0.3  0.3 0.2 0.2  0.3 0.3 0.2  0.3 0.3 0.3  0.3 0.2 0.3  0.4 0.2 0.2  0.4 0.3 0.2  0.4 0.3 0.3  0.4 0.2 0.3  0.5 0.2 0.2  0.5 0.3 0.2  0.5 0.3 0.3  0.5 0.2 0.3  0.6 0.2 0.2  0.6 0.3 0.2  0.6 0.3 0.3  0.6 0.2 0.3  0.7 0.2 0.2  0.7 0.3 0.2  0.7 0.3 0.3  0.7 0.2 0.3  0.8 0.2 0.2  0.8 0.3 0.2  0.8 0.3 0.3  0.8 0.2 0.3  0.9 0.2 0.2  0.9 0.3 0.2  0.9 0.3 0.3  0.9 0.2 0.3  1 0.2 0.2  1 0.3 0.2  1 0.3 0.3  1 0.2 0.3  0.1 0.4 0.2  0.1 0.4 0.3  0 0.4 0.2  0 0.4 0.3  0.2 0.4 0.2  0.2 0.4 0.3  0.3 0.4 0.2  0.3 0.4 0.3  0.4 0.4 0.2  0.4 0.4 0.3  0.5 0.4 0.2  0.5 0.4 0.3  0.6 0.4 0.2  0.6 0.4 0.3  0.7 0.4 0.2  0.7 0.4 0.3  0.8 0.4 0.2  0.8 0.4 0.3  0.9 0.4 0.2  0.9 0.4 0.3  1 0.4 0.2  1 0.4 0.3  0.1 0.5 0.2  0.1 0.5 0.3  0 0.5 0.2  0 0.5 0.3  0.2 0.5 0.2  0.2 0.5 0.3  0.3 0.5 0.2  0.3 0.5 0.3  0.4 0.5 0.2  0.4 0.5 0.3  0.5 0.5 0.2  0.5 0.5 0.3  0.6 0.5 0.2  0.6 0.5 0.3  0.7 0.5 0.2  0.7 0.5 0.3  0.8 0.5 0.2  0.8 0.5 0.3  0.9 0.5 0.2  0.9 0.5 0.3  1 0.5 0.2  1 0.5 0.3  0.1 0.6 0.2  0.1 0.6 0.3  0 0.6 0.2  0 0.6 0.3  0.2 0.6 0.2  0.2 0.6 0.3  0.3 0.6 0.2  0.3 0.6 0.3  0.4 0.6 0.2  0.4 0.6 0.3  0.5 0.6 0.2  0.5 0.6 0.3  0.6 0.6 0.2  0.6 0.6 0.3  0.7 0.6 0.2  0.7 0.6 0.3  0.8 0.6 0.2  0.8 0.6 0.3  0.9 0.6 0.2  0.9 0.6 0.3  1 0.6 0.2  1 0.6 0.3  0.1 0.7 0.2  0.1 0.7 0.3  0 0.7 0.2  0 0.7 0.3  0.2 0.7 0.2  0.2 0.7 0.3  0.3 0.7 0.2  0.3 0.7 0.3  0.4 0.7 0.2  0.4 0.7 0.3  0.5 0.7 0.2  0.5 0.7 0.3  0.6 0.7 0.2  0.6 0.7 0.3  0.7 0.7 0.2  0.7 0.7 0.3  0.8 0.7 0.2  0.8 0.7 0.3  0.9 0.7 0.2  0.9 0.7 0.3  1 0.7 0.2  1 0.7 0.3  0.1 0.8 0.2  0.1 0.8 0.3  0 0.8 0.2  0 0.8 0.3  0.2 0.8 0.2  0.2 0.8 0.3  0.3 0.8 0.2  0.3 0.8 0.3  0.4 0.8 0.2  0.4 0.8 0.3  0.5 0.8 0.2  0.5 0.8 0.3  0.6 0.8 0.2  0.6 0.8 0.3  0.7 0.8 0.2  0.7 0.8 0.3  0.8 0.8 0.2  0.8 0.8 0.3  0.9 0.8 0.2  0.9 0.8 0.3  1 0.8 0.2  1 0.8 0.3  0.1 0.3 0.4  0.1 0.2 0.4  0 0.2 0.4  0 0.3 0.4  0.2 0.3 0.4  0.2 0.2 0.4  0.3 0.3 0.4  0.3 0.2 0.4  0.4 0.3 0.4  0.4 0.2 0.4  0.5 0.3 0.4  0.5 0.2 0.4  0.6 0.3 0.4  0.6 0.2 0.4  0.7 0.3 0.4  0.7 0.2 0.4  0.8 0.3 0.4  0.8 0.2 0.4  0.9 0.3 0.4  0.9 0.2 0.4  1 0.3 0.4  1 0.2 0.4  0.1 0.4 0.4  0 0.4 0.4  0.2 0.4 0.4  0.3 0.4 0.4  0.4 0.4 0.4  0.5 0.4 0.4  0.6 0.4 0.4  0.7 0.4 0.4  0.8 0.4 0.4  0.9 0.4 0.4  1 0.4 0.4  0.1 0.5 0.4  0 0.5 0.4  0.2 0.5 0.4  0.3 0.5 0.4  0.4 0.5 0.4  0.5 0.5 0.4  0.6 0.5 0.4  0.7 0.5 0.4  0.8 0.5 0.4  0.9 0.5 0.4  1 0.5 0.4  0.1 0.6 0.4  0 0.6 0.4  0.2 0.6 0.4  0.3 0.6 0.4  0.4 0.6 0.4  0.5 0.6 0.4  0.6 0.6 0.4  0.7 0.6 0.4  0.8 0.6 0.4  0.9 0.6 0.4  1 0.6 0.4  0.1 0.7 0.4  0 0.7 0.4  0.2 0.7 0.4  0.3 0.7 0.4  0.4 0.7 0.4  0.5 0.7 0.4  0.6 0.7 0.4  0.7 0.7 0.4  0.8 0.7 0.4  0.9 0.7 0.4  1 0.7 0.4  0.1 0.8 0.4  0 0.8 0.4  0.2 0.8 0.4  0.3 0.8 0.4  0.4 0.8 0.4  0.5 0.8 0.4  0.6 0.8 0.4  0.7 0.8 0.4  0.8 0.8 0.4  0.9 0.8 0.4  1 0.8 0.4  0.1 0.3 0.5  0.1 0.2 0.5  0 0.2 0.5  0 0.3 0.5  0.2 0.3 0.5  0.2 0.2 0.5  0.3 0.3 0.5  0.3 0.2 0.5  0.4 0.3 0.5  0.4 0.2 0.5  0.5 0.3 0.5  0.5 0.2 0.5  0.6 0.3 0.5  0.6 0.2 0.5  0.7 0.3 0.5  0.7 0.2 0.5  0.8 0.3 0.5  0.8 0.2 0.5  0.9 0.3 0.5  0.9 0.2 0.5  1 0.3 0.5  1 0.2 0.5  0.1 0.4 0.5  0 0.4 0.5  0.2 0.4 0.5  0.3 0.4 0.5  0.4 0.4 0.5  0.5 0.4 0.5  0.6 0.4 0.5  0.7 0.4 0.5  0.8 0.4 0.5  0.9 0.4 0.5  1 0.4 0.5  0.1 0.5 0.5  0 0.5 0.5  0.2 0.5 0.5  0.3 0.5 0.5  0.4 0.5 0.5  0.5 0.5 0.5  0.6 0.5 0.5  0.7 0.5 0.5  0.8 0.5 0.5  0.9 0.5 0.5  1 0.5 0.5  0.1 0.6 0.5  0 0.6 0.5  0.2 0.6 0.5  0.3 0.6 0.5  0.4 0.6 0.5  0.5 0.6 0.5  0.6 0.6 0.5  0.7 0.6 0.5  0.8 0.6 0.5  0.9 0.6 0.5  1 0.6 0.5  0.1 0.7 0.5  0 0.7 0.5  0.2 0.7 0.5  0.3 0.7 0.5  0.4 0.7 0.5  0.5 0.7 0.5  0.6 0.7 0.5  0.7 0.7 0.5  0.8 0.7 0.5  0.9 0.7 0.5  1 0.7 0.5  0.1 0.8 0.5  0 0.8 0.5  0.2 0.8 0.5  0.3 0.8 0.5  0.4 0.8 0.5  0.5 0.8 0.5  0.6 0.8 0.5  0.7 0.8 0.5  0.8 0.8 0.5  0.9 0.8 0.5  1 0.8 0.5  0.1 0.3 0.6  0.1 0.2 0.6  0 0.2 0.6  0 0.3 0.6  0.2 0.3 0.6  0.2 0.2 0.6  0.3 0.3 0.6  0.3 0.2 0.6  0.4 0.3 0.6  0.4 0.2 0.6  0.5 0.3 0.6  0.5 0.2 0.6  0.6 0.3 0.6  0.6 0.2 0.6  0.7 0.3 0.6  0.7 0.2 0.6  0.8 0.3 0.6  0.8 0.2 0.6  0.9 0.3 0.6  0.9 0.2 0.6  1 0.3 0.6  1 0.2 0.6  0.1 0.4 0.6  0 0.4 0.6  0.2 0.4 0.6  0.3 0.4 0.6  0.4 0.4 0.6  0.5 0.4 0.6  0.6 0.4 0.6  0.7 0.4 0.6  0.8 0.4 0.6  0.9 0.4 0.6  1 0.4 0.6  0.1 0.5 0.6  0 0.5 0.6  0.2 0.5 0.6  0.3 0.5 0.6  0.4 0.5 0.6  0.5 0.5 0.6  0.6 0.5 0.6  0.7 0.5 0.6  0.8 0.5 0.6  0.9 0.5 0.6  1 0.5 0.6  0.1 0.6 0.6  0 0.6 0.6  0.2 0.6 0.6  0.3 0.6 0.6  0.4 0.6 0.6  0.5 0.6 0.6  0.6 0.6 0.6  0.7 0.6 0.6  0.8 0.6 0.6  0.9 0.6 0.6  1 0.6 0.6  0.1 0.7 0.6  0 0.7 0.6  0.2 0.7 0.6  0.3 0.7 0.6  0.4 0.7 0.6  0.5 0.7 0.6  0.6 0.7 0.6  0.7 0.7 0.6  0.8 0.7 0.6  0.9 0.7 0.6  1 0.7 0.6  0.1 0.8 0.6  0 0.8 0.6  0.2 0.8 0.6  0.3 0.8 0.6  0.4 0.8 0.6  0.5 0.8 0.6  0.6 0.8 0.6  0.7 0.8 0.6  0.8 0.8 0.6  0.9 0.8 0.6  1 0.8 0.6  0.1 0.3 0.7  0.1 0.2 0.7  0 0.2 0.7  0 0.3 0.7  0.2 0.3 0.7  0.2 0.2 0.7  0.3 0.3 0.7  0.3 0.2 0.7  0.4 0.3 0.7  0.4 0.2 0.7  0.5 0.3 0.7  0.5 0.2 0.7  0.6 0.3 0.7  0.6 0.2 0.7  0.7 0.3 0.7  0.7 0.2 0.7  0.8 0.3 0.7  0.8 0.2 0.7  0.9 0.3 0.7  0.9 0.2 0.7  1 0.3 0.7  1 0.2 0.7  0.1 0.4 0.7  0 0.4 0.7  0.2 0.4 0.7  0.3 0.4 0.7  0.4 0.4 0.7  0.5 0.4 0.7  0.6 0.4 0.7  0.7 0.4 0.7  0.8 0.4 0.7  0.9 0.4 0.7  1 0.4 0.7  0.1 0.5 0.7  0 0.5 0.7  0.2 0.5 0.7  0.3 0.5 0.7  0.4 0.5 0.7  0.5 0.5 0.7  0.6 0.5 0.7  0.7 0.5 0.7  0.8 0.5 0.7  0.9 0.5 0.7  1 0.5 0.7  0.1 0.6 0.7  0 0.6 0.7  0.2 0.6 0.7  0.3 0.6 0.7  0.4 0.6 0.7  0.5 0.6 0.7  0.6 0.6 0.7  0.7 0.6 0.7  0.8 0.6 0.7  0.9 0.6 0.7  1 0.6 0.7  0.1 0.7 0.7  0 0.7 0.7  0.2 0.7 0.7  0.3 0.7 0.7  0.4 0.7 0.7  0.5 0.7 0.7  0.6 0.7 0.7  0.7 0.7 0.7  0.8 0.7 0.7  0.9 0.7 0.7  1 0.7 0.7  0.1 0.8 0.7  0 0.8 0.7  0.2 0.8 0.7  0.3 0.8 0.7  0.4 0.8 0.7  0.5 0.8 0.7  0.6 0.8 0.7  0.7 0.8 0.7  0.8 0.8 0.7  0.9 0.8 0.7  1 0.8 0.7  0.1 0.3 0.8  0.1 0.2 0.8  0 0.2 0.8  0 0.3 0.8  0.2 0.3 0.8  0.2 0.2 0.8  0.3 0.3 0.8  0.3 0.2 0.8  0.4 0.3 0.8  0.4 0.2 0.8  0.5 0.3 0.8  0.5 0.2 0.8  0.6 0.3 0.8  0.6 0.2 0.8  0.7 0.3 0.8  0.7 0.2 0.8  0.8 0.3 0.8  0.8 0.2 0.8  0.9 0.3 0.8  0.9 0.2 0.8  1 0.3 0.8  1 0.2 0.8  0.1 0.4 0.8  0 0.4 0.8  0.2 0.4 0.8  0.3 0.4 0.8  0.4 0.4 0.8  0.5 0.4 0.8  0.6 0.4 0.8  0.7 0.4 0.8  0.8 0.4 0.8  0.9 0.4 0.8  1 0.4 0.8  0.1 0.5 0.8  0 0.5 0.8  0.2 0.5 0.8  0.3 0.5 0.8  0.4 0.5 0.8  0.5 0.5 0.8  0.6 0.5 0.8  0.7 0.5 0.8  0.8 0.5 0.8  0.9 0.5 0.8  1 0.5 0.8  0.1 0.6 0.8  0 0.6 0.8  0.2 0.6 0.8  0.3 0.6 0.8  0.4 0.6 0.8  0.5 0.6 0.8  0.6 0.6 0.8  0.7 0.6 0.8  0.8 0.6 0.8  0.9 0.6 0.8  1 0.6 0.8  0.1 0.7 0.8  0 0.7 0.8  0.2 0.7 0.8  0.3 0.7 0.8  0.4 0.7 0.8  0.5 0.7 0.8  0.6 0.7 0.8  0.7 0.7 0.8  0.8 0.7 0.8  0.9 0.7 0.8  1 0.7 0.8  0.1 0.8 0.8  0 0.8 0.8  0.2 0.8 0.8  0.3 0.8 0.8  0.4 0.8 0.8  0.5 0.8 0.8  0.6 0.8 0.8  0.7 0.8 0.8  0.8 0.8 0.8  0.9 0.8 0.8  1 0.8 0.8  </DataArray>
</Points>
<Cells>
[...]
<PointData  Vectors="f_25"> 
<DataArray  type="Float64"  Name="f_25"  NumberOfComponents="3" format="ascii">-6.3173317053020507e-04 4.6237585528435868e-05 3.0165249540322768e-04  -6.0326305887889388e-04 6.0845522814189698e-05 3.9618932567602919e-04  -6.2029063624407187e-04 6.9887167289606189e-05 3.6297456056882602e-04  1.4621391264096506e-02 2.2857818627184316e-06 1.2959700248769354e-05  -5.2354813088692747e-04 6.4382263688903836e-05 3.4325274771722272e-04  -5.2590916315597676e-04 6.0137311258830054e-05 2.4214949738086337e-04  -6.4369396311825537e-04 5.4327877333139003e-05 2.8921985091323236e-04  1.4764594439271942e-02 -1.4438049132093665e-05 1.3015014440652680e-05  -5.1545837926600911e-04 7.4435047996778902e-05 5.5754659912778657e-04  -5.2612635974716448e-04 9.2179045419852761e-05 5.3332433350729823e-04  1.4356619836173930e-02 -6.3333922180963846e-05 1.4314757217439013e-04  -4.4997239218259340e-04 9.3076662668849848e-05 5.2505597334269731e-04  -4.4969759769063081e-04 9.2872047772794483e-05 6.8056755631941651e-04  -4.6226191053294987e-04 1.1300204004831101e-04 6.6762428935889819e-04  1.4336915597630614e-02 -1.3213202433507389e-04 1.8508752131318217e-04  -3.9470662804053764e-04 1.3091845249458176e-04 6.7961984646119672e-04  -3.4667276234567949e-04 1.1423952336830165e-04 7.5988253913827507e-04  -3.6786900214516696e-04 1.3155151182759361e-04 7.6128719510912832e-04  1.4340890297489774e-02 -2.2911317075044034e-04 2.1888170491068869e-04  -3.2095815476813449e-04 1.8273859153594772e-04 8.0398040890897616e-04  -1.7481130659112321e-04 1.2888547224421256e-04 7.8555637603596232e-04  -2.1472068723164483e-04 1.4320357387934349e-04 8.0582694031407535e-04  1.4405943644896124e-02 -3.5567097113388375e-04 2.4909214728609648e-04  -2.0241759803253545e-04 2.4090969175982516e-04 8.8140922714930955e-04  8.9683261444278365e-05 1.1756303449847965e-04 7.4627364897039347e-04  1.9038556592920672e-05 1.3643483634900728e-04 7.8108839977338680e-04  1.4639528904718381e-02 -5.0257636550510223e-04 2.2204194885996076e-04  -1.5228020587425410e-05 2.6810020776895488e-04 8.9155467434244692e-04  4.8271013803988504e-04 7.5015456268852086e-05 6.1812400852553873e-04  3.6970101464065219e-04 1.0088927992453845e-04 6.5820314314632606e-04  1.5266487458262718e-02 -6.4341571823885364e-04 -2.7285554524242151e-05  2.7870145728440025e-04 2.1713052422377670e-04 8.0961929691511459e-04  1.0418755384662612e-03 3.6478188353443836e-05 3.7262497370533522e-04  8.8796484364179725e-04 4.9943322186498569e-05 4.1451225175298805e-04  1.6628717528825311e-02 -7.7230841340305504e-04 -8.1308699016982599e-04  7.3837533810428740e-04 1.0873813124818317e-04 5.4276061348521227e-04  1.5825406064985191e-03 1.0241848855082561e-05 1.3376028099395149e-04  1.4805002288355306e-03 1.7098639557442916e-05 1.7769483314595684e-04  1.8908171818984711e-02 -9.1744429116344135e-04 -2.0081380573724757e-03  1.3170959292618818e-03 3.1847299103103168e-05 2.0347587365340588e-04  1.8446408114575047e-03 -1.2901066960989173e-05 1.7417241679692765e-04  1.7774869938416659e-03 -1.0543981101187531e-05 2.2227752165185583e-04  2.1267942590215316e-02 -7.1931071282092731e-04 -1.7436158469048785e-03  1.6453239551761554e-03 3.3914043593886077e-05 2.0677617588684753e-04  -5.7918327983409431e-04 9.9590183701489920e-05 3.5600055906892433e-04  5.0401386254686577e-02 -4.1360785506834860e-05 -4.5230050951881141e-05  -5.9489409827933411e-04 8.2951697850933099e-05 2.8394312335076134e-04  5.0278755342783150e-02 -2.0511147259975343e-05 -1.0051637640584258e-04  -4.9930811913611976e-04 1.3939005654272594e-04 5.2794950175686956e-04  5.0141893944565349e-02 -9.9276280550683504e-05 6.9943238067417970e-05  -4.4380788010542815e-04 1.6666211449513121e-04 6.6414593245575605e-04  5.0102938561376431e-02 -1.7029567733811129e-04 5.9316953262951708e-05  -3.5609552129520970e-04 1.8182649221312386e-04 7.6468032869507734e-04  5.0061716797787675e-02 -2.7582325868859742e-04 1.8717824916780311e-05  -2.1488075398016663e-04 1.8465958636369639e-04 8.2147228338035820e-04  5.0094686303390916e-02 -4.1592365144348174e-04 -6.4045973256388297e-05  -4.1341951862288178e-06 1.7345705446106209e-04 8.0967462780816854e-04  5.0370126309202713e-02 -5.8035105054977368e-04 -2.6886923839499198e-04  3.1917630860392676e-04 1.4485686629864226e-04 6.9363383936720641e-04  5.1182273561108431e-02 -7.3506578976162396e-04 -7.5867748483262048e-04  8.3052085887097777e-04 9.5140119032657714e-05 4.4263799223069616e-04  5.2839441219885798e-02 -8.3865421783601028e-04 -1.7764909340656524e-03  1.4477348470140995e-03 2.9629782551062156e-05 2.0772917949411247e-04  5.5392206969722170e-02 -8.5904071883515008e-04 -3.1559256138173090e-03  1.7345560106340179e-03 2.0121209339959398e-05 2.6347271473550651e-04  5.8338126503144537e-02 -1.0155933560395611e-03 -2.9210890425555337e-03  -5.1803383417618146e-04 1.2726532985260158e-04 3.3267171437182335e-04  6.4471698358610038e-02 -8.6276703991608188e-06 -2.8523830217498066e-05  -5.1972724447592994e-04 1.0645519931425505e-04 2.6098669943276545e-04  6.4380781297517425e-02 1.7526266969649395e-05 -7.3163077784398623e-05  -4.6112239146240818e-04 1.8906337905975524e-04 4.9379397168699266e-04  6.4203335118414043e-02 -1.9968326886313522e-05 7.8700948784101091e-05  -4.2319632733546123e-04 2.2800569562668178e-04 6.2261598207794455e-04  6.4150417344863223e-02 -5.4873301787691091e-05 5.2051003881617575e-05  -3.5056290437240689e-04 2.4458930194036401e-04 7.1986763538319594e-04  6.4071184941398213e-02 -1.1353158931095008e-04 -2.1914351450855140e-05  -2.2268499863218618e-04 2.4067872527551193e-04 7.7842963469404035e-04  6.4064604670028960e-02 -1.9628169532361108e-04 -1.6765707580910377e-04  -2.5005396815839731e-05 2.2215052060369896e-04 7.7624519445710553e-04  6.4339393335553025e-02 -2.9969249074284659e-04 -4.7625342813958552e-04  2.8020640063206482e-04 1.9684664008574478e-04 6.7436181378693276e-04  6.5216162066961542e-02 -4.0145413145114596e-04 -1.1241767015405524e-03  7.6841441614965698e-04 1.5508723886763947e-04 4.3654201078074728e-04  6.7002120135630797e-02 -4.6153470760461812e-04 -2.2561394841402417e-03  1.3794234039241197e-03 5.6795294969705963e-05 2.1539992204307876e-04  6.9737492808382068e-02 -4.5290900846977001e-04 -3.6420880109654199e-03  1.6535987414163407e-03 8.6186560498816974e-05 2.6886457542892853e-04  7.2862632305488270e-02 -5.7229326922152081e-04 -3.5281708807489362e-03  -4.3672820679424129e-04 1.4139875591382241e-04 2.9272491066808007e-04  5.0552395333479154e-02 4.1814244456414167e-05 7.0448385536884814e-06  -4.2519713905926843e-04 1.0517764542573122e-04 2.2494087592145689e-04  5.0598849682171834e-02 9.8881457641009619e-05 -2.8138024584836595e-06  -4.0737042268948871e-04 2.2697186217198251e-04 4.3579240355028412e-04  5.0313605985043655e-02 7.2237486601178845e-05 1.0196852425059854e-04  -3.9315996868738667e-04 2.8712342291460554e-04 5.5014109884716361e-04  5.0303536331216217e-02 8.3428831727719603e-05 7.5726625898201418e-05  -3.4517888006951663e-04 3.2147705458470251e-04 6.3613446332103020e-04  5.0260661589292786e-02 9.4088026980447144e-05 1.3727310705379977e-06  -2.3790289468940276e-04 3.2860081902220072e-04 6.8707090816127710e-04  5.0279671668304424e-02 1.0168105179750807e-04 -1.4992366016952188e-04  -5.0997936046623025e-05 3.1250111752880019e-04 6.8306275449781049e-04  5.0566191516716479e-02 1.0245053878823021e-04 -4.7445785421738808e-04  2.4306072337077864e-04 2.8389111123421458e-04 5.9180295205792815e-04  5.1434040354957813e-02 9.5965265097343064e-05 -1.1296337529329366e-03  6.9516999311978957e-04 2.3606613726278859e-04 3.9056641434999931e-04  5.3170113289034066e-02 1.0839973944477556e-04 -2.1600156874654968e-03  1.2626454238581926e-03 9.9281214266812165e-05 1.9520459891390080e-04  5.5812729922286496e-02 1.4889966499004344e-04 -3.3891382503616315e-03  1.5045531800437668e-03 1.5662187056472625e-04 2.3499379435272836e-04  5.8614005858719058e-02 9.3915685187762713e-05 -3.2929437155628976e-03  -3.4992748661902935e-04 1.2757734096717586e-04 2.4695712698030552e-04  1.5224670470525316e-02 9.1775692640680239e-05 1.1105636256139898e-04  -3.4440062832715888e-04 7.9215480428702808e-05 1.8289327030390366e-04  1.5542846161664056e-02 3.3541477448333350e-04 1.6534841999332482e-04  -3.4182498003760555e-04 2.3193431823414066e-04 3.7083651433643145e-04  1.5142314356786077e-02 1.3135498534720132e-04 1.7416611566557620e-04  -3.4491892217820293e-04 3.1460207486552348e-04 4.7236422171785899e-04  1.5258574544679075e-02 1.9753117067232025e-04 1.7727950086782976e-04  -3.1974111532757780e-04 3.7405783705937273e-04 5.4876211624635028e-04  1.5349930753516974e-02 2.8061661896718629e-04 1.4520844215395068e-04  -2.4089226630182506e-04 4.0639206719057536e-04 5.9435106477692451e-04  1.5495491807722561e-02 3.7358318503404064e-04 5.3297900878934576e-05  -8.2961255219819542e-05 4.0866953710912764e-04 5.9218596204096692e-04  1.5831970948238364e-02 4.6628010636265438e-04 -1.6908762608959521e-04  1.8561766604446509e-04 3.8252250578166231e-04 5.1878489738785098e-04  1.6578196859577725e-02 5.3454207282300267e-04 -6.0582364832597289e-04  5.9102328888828090e-04 3.2590642527735011e-04 3.5568786520890245e-04  1.7979516511341297e-02 5.6893001767131920e-04 -1.3105729056854803e-03  1.0961077701838067e-03 2.0192583558744664e-04 1.7090950940799906e-04  2.0104063080609663e-02 6.2147788295163927e-04 -2.1563124534499743e-03  1.3104350827397608e-03 1.7929874015504887e-04 1.8911459794560451e-04  2.1966144517423774e-02 5.0025132495288833e-04 -1.9028731884476546e-03  -3.8797776955851171e-04 1.0658339933134888e-04 1.9759674418707535e-04  -3.4749537983304004e-04 7.8388949862985503e-05 1.6731917452523148e-04  -4.5546421439589968e-04 1.1170083349411634e-04 1.0810667373995042e-04  -3.4946190790411996e-04 7.5233617866240826e-05 1.2086996963362083e-04  -3.5168268005970345e-04 2.1534289816462578e-04 3.0785358012518110e-04  -3.9156617393959638e-04 1.7701185931795992e-04 3.0881778321931386e-04  -3.6173581884969028e-04 3.0828257206596220e-04 4.0318368470368350e-04  -3.7797543472961723e-04 2.7170969648458688e-04 4.2018370792737544e-04  -3.4969780025017537e-04 3.8110280355391392e-04 4.6696475358273473e-04  -3.6063389094367015e-04 3.4356344680094131e-04 5.1445980421597093e-04  -2.8853549176047037e-04 4.2926788424918336e-04 5.0227632903578176e-04  -3.1403644899500937e-04 3.8936962500185309e-04 5.8969528041647877e-04  -1.5571037201127317e-04 4.4532471928172476e-04 5.0218724910292565e-04  -2.1003617842159440e-04 4.0457910923710717e-04 6.3109437860076761e-04  7.7470096243415989e-05 4.2267825056499048e-04 4.5738352888741586e-04  -2.4863690507463615e-05 3.8942495729917117e-04 6.1410635696968895e-04  4.5979973939386216e-04 3.5011483294765280e-04 3.5690571056217531e-04  2.7942482507103559e-04 3.4584246137431680e-04 5.0685156371154760e-04  9.7060377242456680e-04 2.3297759980821936e-04 2.0945830538361473e-04  7.3681355721440646e-04 2.6734560875165309e-04 3.0592259524235180e-04  1.2067343055251441e-03 1.7336442680203449e-04 1.7556257838603200e-04  1.0695054866022651e-03 2.5317405010740645e-04 1.8537760533079666e-04  5.0503245886288503e-02 6.8814472927383367e-05 -1.3250104344522405e-04  -3.1301382039785176e-04 8.9868390506656729e-05 3.0579783264154579e-04  -3.0659869003221306e-04 7.9321664724326670e-05 2.1031998238483292e-04  5.0331928956114935e-02 4.8971032730522613e-05 9.0632552764314934e-05  5.0265434471460264e-02 -2.7163932411464733e-05 4.8090806040590470e-05  -2.6412568827011319e-04 1.3917243538120991e-04 4.9871907963183802e-04  5.0235903372169224e-02 -1.2061380269536638e-04 1.1253007836397511e-04  -2.2487757611352834e-04 2.0486094370586350e-04 6.9039539335642903e-04  5.0228561254591707e-02 -2.4158524291455379e-04 1.3442611642597730e-04  -1.8378763923597820e-04 3.0474771739243979e-04 8.7141682692839443e-04  5.0238465393341342e-02 -4.1164244814969882e-04 1.3465274841277888e-04  -1.3894572457422204e-04 4.4166917691665901e-04 1.0192372770959335e-03  5.0315894155162799e-02 -6.5213172719664125e-04 8.5624772135492160e-05  -7.3400575867300292e-05 5.6599387535682022e-04 1.1037003878746766e-03  5.0620564596299801e-02 -9.4501679935056872e-04 -1.7665676330953745e-04  7.7110296305759427e-05 5.4360503046871410e-04 1.1197786642826231e-03  5.1592929344024645e-02 -1.2369505192661319e-03 -1.2185182029674179e-03  4.2902570507203719e-04 3.1823466457906065e-04 9.3516462372132821e-04  5.3708704606477635e-02 -1.6089214653682276e-03 -3.1884291142349470e-03  9.5845382850561324e-04 1.2377212946753909e-04 2.8175787176159525e-04  5.5271529413475906e-02 -1.1174769918146116e-03 -1.7783947492395473e-03  1.1813512991788553e-03 1.1672864827522900e-04 3.5201261596172197e-04  1.1328496997344260e-01 -4.9937304084797883e-05 -2.9048114225843896e-04  1.1325870390796600e-01 3.3640051755609744e-06 -5.5770249930111820e-05  1.1307035989849745e-01 -1.0954849062753475e-04 -7.4183633699181187e-05  1.1295459669067523e-01 -2.1781495615374875e-04 -7.5989274473088335e-05  1.1282859774156312e-01 -3.8213294594592709e-04 -1.8783679326304616e-04  1.1271163238574812e-01 -6.2216813522122103e-04 -4.2068563993617671e-04  1.1273755085119680e-01 -9.6010750496193910e-04 -8.5906684282976639e-04  1.1319521418069654e-01 -1.3766313545698643e-03 -1.6909157882536825e-03  1.1452068381311692e-01 -1.7207912033492859e-03 -3.3794596831964617e-03  1.1676458105545379e-01 -1.7623376140045021e-03 -5.8858588656519250e-03  1.1856667940842103e-01 -1.9829724461978373e-03 -4.7236175192999280e-03  1.3736476108178539e-01 -3.4164553914647318e-05 -2.9016593408365856e-04  1.3746971272402153e-01 5.6473473109575301e-06 -4.4154285035379717e-05  1.3713996305688886e-01 -5.6654118562785142e-05 -6.1685022409912484e-05  1.3698832690705209e-01 -1.2423024902724359e-04 -8.8818409187161994e-05  1.3678354444002644e-01 -2.3655394001964637e-04 -2.6245814043510297e-04  1.3656468208297626e-01 -4.0851241237379818e-04 -6.2432646598276445e-04  1.3649942244999808e-01 -6.6405788888304401e-04 -1.3059289037109720e-03  1.3696940215473796e-01 -9.9046886719919092e-04 -2.5100502105673194e-03  1.3844115474565349e-01 -1.2588006790440951e-03 -4.6515159090045584e-03  1.4093735975888066e-01 -1.2393173902391480e-03 -7.3238755650049028e-03  1.4282390568779321e-01 -1.4665757019202163e-03 -6.5101397501944065e-03  1.1325161294160144e-01 3.3297251231118811e-05 -2.4534098679226073e-04  1.1353500500591231e-01 9.7178207669743364e-05 6.6517949426881881e-06  1.1307131564430753e-01 5.0689132635521837e-05 -2.1090659759823495e-05  1.1298241062022880e-01 4.2595549241036733e-05 -4.6218694982166160e-05  1.1283161918703459e-01 2.4206890078116675e-05 -2.1393442967426567e-04  1.1264924513766045e-01 -1.7154359314998591e-05 -5.6986945368076155e-04  1.1260021097077549e-01 -1.0498462743544241e-04 -1.2653628482275040e-03  1.1307941625997678e-01 -2.3541111355623797e-04 -2.5523135193543569e-03  1.1457404862975633e-01 -3.5186265669328969e-04 -4.7298615324885239e-03  1.1707666825566064e-01 -3.1448437136785836e-04 -6.9747594963304183e-03  1.1864199634726083e-01 -5.1868474771939448e-04 -6.3770927974407714e-03  5.0479290324113205e-02 9.9012853403046547e-05 -1.1882354751686461e-04  5.1031007777310865e-02 3.4720556630799616e-04 1.3821853740850491e-04  5.0467764068782596e-02 1.2406921809311145e-04 6.9348493037118362e-05  5.0550161164635760e-02 1.7930555163909561e-04 8.9464652582810458e-05  5.0606833284963008e-02 2.4939090602422352e-04 1.3827980889871336e-05  5.0656202415755226e-02 3.2040563979909137e-04 -1.8869687910264585e-04  5.0802663171656388e-02 3.7075945653220046e-04 -6.3229195383506149e-04  5.1265242825013151e-02 3.8897182304464882e-04 -1.5167749046037873e-03  5.2471686181494809e-02 3.5702978650313760e-04 -2.8147876434418337e-03  5.4625620001227310e-02 4.4751629579470846e-04 -4.3355550196584013e-03  5.5341305387127095e-02 1.6798685242047396e-04 -3.6750688726891662e-03  -1.6991492578988891e-04 5.6287023652244170e-05 1.3493470543383035e-04  -1.6582630051459297e-04 5.5251062299236953e-05 1.4231331686027156e-04  -2.3929755928900608e-04 1.2914500203710139e-04 3.1853638984143373e-04  -2.6382770345705536e-04 2.0941604610013548e-04 4.7829698608199732e-04  -2.5914026532381949e-04 2.6917722519642043e-04 6.3298326781712204e-04  -2.3097716171775618e-04 3.0546053595132636e-04 7.8304413643842284e-04  -1.7343133335383245e-04 3.1602281202501077e-04 9.0542335668704007e-04  -7.7716425233656067e-05 3.0523873346832020e-04 9.5327599699513267e-04  9.5920265574446457e-05 2.7378278472237196e-04 8.6149539045302353e-04  4.4915392275905383e-04 2.0589713852971054e-04 5.8156931808703500e-04  7.7357178207156649e-04 2.2021893890429321e-04 3.9702114662231662e-04  6.4672337710493966e-02 9.3116594814814666e-05 -1.1631553797298672e-04  -1.1230693667266552e-04 1.1342760582355525e-04 2.6660741918599476e-04  -1.0646056984020934e-04 9.1655037794869897e-05 1.7610550883820388e-04  6.4513011004973891e-02 8.9948366400048553e-05 8.6402214458426417e-05  6.4452353033258775e-02 2.0538388037441980e-06 5.2140703924911638e-05  -6.1357106850573219e-05 1.8247879527869256e-04 4.5555767256699953e-04  6.4437654765266542e-02 -8.6199721376597487e-05 1.2200091979463326e-04  -1.6226104914921481e-05 2.7917532356977232e-04 6.5771133591958507e-04  6.4433212094980791e-02 -2.0754620414841824e-04 1.1917047083177633e-04  2.3378634878563294e-05 4.3320477579693773e-04 8.6621451173200174e-04  6.4385379356119113e-02 -4.1558277047244876e-04 6.0578298708388436e-05  3.3964881828923036e-05 6.7088905820456360e-04 1.0582235729339915e-03  6.4196716760730924e-02 -8.0838069207676117e-04 -2.7450775412466987e-06  -2.4388358227904345e-05 9.7516633300376364e-04 1.1888309422078483e-03  6.3842014436459163e-02 -1.4950901616064488e-03 5.0897523862353782e-05  -1.3452922682500673e-04 1.1719485543947394e-03 1.2792135733418217e-03  6.4002875397054820e-02 -2.3255312930180391e-03 1.5514164419093857e-05  6.5026525970637294e-05 8.4690772278621926e-04 1.7004475196308558e-03  6.5659865147835755e-02 -3.2980558380443711e-03 -2.0356548868803721e-03  5.8164967613886674e-04 3.4212978798101864e-04 7.3009924056795141e-04  6.6338086786882272e-02 -3.1307298495906449e-03 1.5541075761173933e-03  6.1782371242427635e-04 2.7249964709110460e-04 4.2177895517096775e-04  1.3744819258364407e-01 -3.6594786288323089e-05 -2.6706015685227797e-04  1.3754442915605605e-01 3.6395051661997711e-05 -5.3122038909066965e-05  1.3723860161221646e-01 -8.7375057499466881e-05 -8.0880531510434526e-05  1.3710472516276362e-01 -2.1298637030158445e-04 -7.5943349473275854e-05  1.3690492792188072e-01 -4.1730046897743008e-04 -2.3593814253152252e-04  1.3658370902193262e-01 -7.6298154445266343e-04 -5.9913773632653633e-04  1.3608876955860175e-01 -1.3672012464045872e-03 -1.2115653104930043e-03  1.3553348094167045e-01 -2.3272121100068794e-03 -2.0208943068636014e-03  1.3562924769692272e-01 -3.4340599545153536e-03 -3.1843896267276222e-03  1.3655976278201715e-01 -3.8778390028583803e-03 -6.4482444483112931e-03  1.3644130218704276e-01 -4.6241287052809594e-03 -3.7005964346514611e-03  1.6509012337105181e-01 -4.2022946850734623e-05 -2.9660057762070485e-04  1.6536022189822511e-01 1.7616891972362259e-05 -6.4848926564503427e-05  1.6486295206862006e-01 -5.6078613610677230e-05 -9.5545332051949109e-05  1.6466523607358646e-01 -1.4387953713241187e-04 -1.1881608705504085e-04  1.6433728670591799e-01 -2.9959061382899097e-04 -3.5532844769901661e-04  1.6381514930783322e-01 -5.6415809487328147e-04 -8.8774810136494351e-04  1.6307505073687481e-01 -1.0297322851616911e-03 -1.8512712329210683e-03  1.6224001340491032e-01 -1.7766542411282930e-03 -3.3182196990935832e-03  1.6215819653986896e-01 -2.6197595208654655e-03 -5.4763374211487820e-03  1.6312150349596921e-01 -2.7183615521356457e-03 -9.4991190305054370e-03  1.6292890862175921e-01 -3.3568767979344784e-03 -7.6909771761871065e-03  1.3728152161497295e-01 2.1310224531948831e-05 -2.8482246335922491e-04  1.3772463247950179e-01 9.6953238972657572e-05 -5.1035235911173587e-05  1.3709948266791361e-01 3.5576434710633660e-05 -8.3294964555390128e-05  1.3696185281039627e-01 1.3161340640627052e-05 -1.0762241636521908e-04  1.3668977258019749e-01 -3.8419411109961028e-05 -3.3871573552363301e-04  1.361