<?xml version="1.0"?>
<VTKFile type="UnstructuredGrid"  version="0.1"  >
<UnstructuredGrid>
<Piece  NumberOfPoints="533" NumberOfCells="2122">
<Points>
<DataArray  type="Float64"  NumberOfComponents="3"  format="ascii">0 0.2 0.2  0.1 0.2 0.2  0.1 0.3 0.2  0.1 0.3 0.3  0.1 0.2 0.3  0 0.2 0.3  0 0.3 0.2  0 0.3 0.3  0.2 0.2 0.2  0.2 0.3 0.2  0.2 0.3 0.3  0.2 0.2 0.3  0.3 0.2 0.2  0.3 0.3 0.2  0.3 0.3 0.3  0.3 0.2 0.3  0.4 0.2 0.2  0.4 0.3 0.2  0.4 0.3 0.3  0.4 0.2 0.3  0.5 0.2 0.2  0.5 0.3 0.2  0.5 0.3 0.3  0.5 0.2 0.3  0.6 0.2 0.2  0.6 0.3 0.2  0.6 0.3 0.3  0.6 0.2 0.3  0.7 0.2 0.2  0.7 0.3 0.2  0.7 0.3 0.3  0.7 0.2 0.3  0.8 0.2 0.2  0.8 0.3 0.2  0.8 0.3 0.3  0.8 0.2 0.3  0.9 0.2 0.2  0.9 0.3 0.2  0.9 0.3 0.3  0.9 0.2 0.3  1 0.2 0.2  1 0.3 0.2  1 0.3 0.3  1 0.2 0.3  0.1 0.4 0.2  0.1 0.4 0.3  0 0.4 0.2  0 0.4 0.3  0.2 0.4 0.2  0.2 0.4 0.3  0.3 0.4 0.2  0.3 0.4 0.3  0.4 0.4 0.2  0.4 0.4 0.3  0.5 0.4 0.2  0.5 0.4 0.3  0.6 0.4 0.2  0.6 0.4 0.3  0.7 0.4 0.2  0.7 0.4 0.3  0.8 0.4 0.2  0.8 0.4 0.3  0.9 0.4 0.2  0.9 0.4 0.3  1 0.4 0.2  1 0.4 0.3  0.1 0.5 0.2  0.1 0.5 0.3  0 0.5 0.2  0 0.5 0.3  0.2 0.5 0.2  0.2 0.5 0.3  0.3 0.5 0.2  0.3 0.5 0.3  0.4 0.5 0.2  0.4 0.5 0.3  0.5 0.5 0.2  0.5 0.5 0.3  0.6 0.5 0.2  0.6 0.5 0.3  0.7 0.5 0.2  0.7 0.5 0.3  0.8 0.5 0.2  0.8 0.5 0.3  0.9 0.5 0.2  0.9 0.5 0.3  1 0.5 0.2  1 0.5 0.3  0.1 0.6 0.2  0.1 0.6 0.3  0 0.6 0.2  0 0.6 0.3  0.2 0.6 0.2  0.2 0.6 0.3  0.3 0.6 0.2  0.3 0.6 0.3  0.4 0.6 0.2  0.4 0.6 0.3  0.5 0.6 0.2  0.5 0.6 0.3  0.6 0.6 0.2  0.6 0.6 0.3  0.7 0.6 0.2  0.7 0.6 0.3  0.8 0.6 0.2  0.8 0.6 0.3  0.9 0.6 0.2  0.9 0.6 0.3  1 0.6 0.2  1 0.6 0.3  0.1 0.7 0.2  0.1 0.7 0.3  0 0.7 0.2  0 0.7 0.3  0.2 0.7 0.2  0.2 0.7 0.3  0.3 0.7 0.2  0.3 0.7 0.3  0.4 0.7 0.2  0.4 0.7 0.3  0.5 0.7 0.2  0.5 0.7 0.3  0.6 0.7 0.2  0.6 0.7 0.3  0.7 0.7 0.2  0.7 0.7 0.3  0.8 0.7 0.2  0.8 0.7 0.3  0.9 0.7 0.2  0.9 0.7 0.3  1 0.7 0.2  1 0.7 0.3  0.1 0.8 0.2  0.1 0.8 0.3  0 0.8 0.2  0 0.8 0.3  0.2 0.8 0.2  0.2 0.8 0.3  0.3 0.8 0.2  0.3 0.8 0.3  0.4 0.8 0.2  0.4 0.8 0.3  0.5 0.8 0.2  0.5 0.8 0.3  0.6 0.8 0.2  0.6 0.8 0.3  0.7 0.8 0.2  0.7 0.8 0.3  0.8 0.8 0.2  0.8 0.8 0.3  0.9 0.8 0.2  0.9 0.8 0.3  1 0.8 0.2  1 0.8 0.3  0.1 0.3 0.4  0.1 0.2 0.4  0 0.2 0.4  0 0.3 0.4  0.2 0.3 0.4  0.2 0.2 0.4  0.3 0.3 0.4  0.3 0.2 0.4  0.4 0.3 0.4  0.4 0.2 0.4  0.5 0.3 0.4  0.5 0.2 0.4  0.6 0.3 0.4  0.6 0.2 0.4  0.7 0.3 0.4  0.7 0.2 0.4  0.8 0.3 0.4  0.8 0.2 0.4  0.9 0.3 0.4  0.9 0.2 0.4  1 0.3 0.4  1 0.2 0.4  0.1 0.4 0.4  0 0.4 0.4  0.2 0.4 0.4  0.3 0.4 0.4  0.4 0.4 0.4  0.5 0.4 0.4  0.6 0.4 0.4  0.7 0.4 0.4  0.8 0.4 0.4  0.9 0.4 0.4  1 0.4 0.4  0.1 0.5 0.4  0 0.5 0.4  0.2 0.5 0.4  0.3 0.5 0.4  0.4 0.5 0.4  0.5 0.5 0.4  0.6 0.5 0.4  0.7 0.5 0.4  0.8 0.5 0.4  0.9 0.5 0.4  1 0.5 0.4  0.1 0.6 0.4  0 0.6 0.4  0.2 0.6 0.4  0.3 0.6 0.4  0.4 0.6 0.4  0.5 0.6 0.4  0.6 0.6 0.4  0.7 0.6 0.4  0.8 0.6 0.4  0.9 0.6 0.4  1 0.6 0.4  0.1 0.7 0.4  0 0.7 0.4  0.2 0.7 0.4  0.3 0.7 0.4  0.4 0.7 0.4  0.5 0.7 0.4  0.6 0.7 0.4  0.7 0.7 0.4  0.8 0.7 0.4  0.9 0.7 0.4  1 0.7 0.4  0.1 0.8 0.4  0 0.8 0.4  0.2 0.8 0.4  0.3 0.8 0.4  0.4 0.8 0.4  0.5 0.8 0.4  0.6 0.8 0.4  0.7 0.8 0.4  0.8 0.8 0.4  0.9 0.8 0.4  1 0.8 0.4  0.1 0.3 0.5  0.1 0.2 0.5  0 0.2 0.5  0 0.3 0.5  0.2 0.3 0.5  0.2 0.2 0.5  0.3 0.3 0.5  0.3 0.2 0.5  0.4 0.3 0.5  0.4 0.2 0.5  0.5 0.3 0.5  0.5 0.2 0.5  0.6 0.3 0.5  0.6 0.2 0.5  0.7 0.3 0.5  0.7 0.2 0.5  0.8 0.3 0.5  0.8 0.2 0.5  0.9 0.3 0.5  0.9 0.2 0.5  1 0.3 0.5  1 0.2 0.5  0.1 0.4 0.5  0 0.4 0.5  0.2 0.4 0.5  0.3 0.4 0.5  0.4 0.4 0.5  0.5 0.4 0.5  0.6 0.4 0.5  0.7 0.4 0.5  0.8 0.4 0.5  0.9 0.4 0.5  1 0.4 0.5  0.1 0.5 0.5  0 0.5 0.5  0.2 0.5 0.5  0.3 0.5 0.5  0.4 0.5 0.5  0.5 0.5 0.5  0.6 0.5 0.5  0.7 0.5 0.5  0.8 0.5 0.5  0.9 0.5 0.5  1 0.5 0.5  0.1 0.6 0.5  0 0.6 0.5  0.2 0.6 0.5  0.3 0.6 0.5  0.4 0.6 0.5  0.5 0.6 0.5  0.6 0.6 0.5  0.7 0.6 0.5  0.8 0.6 0.5  0.9 0.6 0.5  1 0.6 0.5  0.1 0.7 0.5  0 0.7 0.5  0.2 0.7 0.5  0.3 0.7 0.5  0.4 0.7 0.5  0.5 0.7 0.5  0.6 0.7 0.5  0.7 0.7 0.5  0.8 0.7 0.5  0.9 0.7 0.5  1 0.7 0.5  0.1 0.8 0.5  0 0.8 0.5  0.2 0.8 0.5  0.3 0.8 0.5  0.4 0.8 0.5  0.5 0.8 0.5  0.6 0.8 0.5  0.7 0.8 0.5  0.8 0.8 0.5  0.9 0.8 0.5  1 0.8 0.5  0.1 0.3 0.6  0.1 0.2 0.6  0 0.2 0.6  0 0.3 0.6  0.2 0.3 0.6  0.2 0.2 0.6  0.3 0.3 0.6  0.3 0.2 0.6  0.4 0.3 0.6  0.4 0.2 0.6  0.5 0.3 0.6  0.5 0.2 0.6  0.6 0.3 0.6  0.6 0.2 0.6  0.7 0.3 0.6  0.7 0.2 0.6  0.8 0.3 0.6  0.8 0.2 0.6  0.9 0.3 0.6  0.9 0.2 0.6  1 0.3 0.6  1 0.2 0.6  0.1 0.4 0.6  0 0.4 0.6  0.2 0.4 0.6  0.3 0.4 0.6  0.4 0.4 0.6  0.5 0.4 0.6  0.6 0.4 0.6  0.7 0.4 0.6  0.8 0.4 0.6  0.9 0.4 0.6  1 0.4 0.6  0.1 0.5 0.6  0 0.5 0.6  0.2 0.5 0.6  0.3 0.5 0.6  0.4 0.5 0.6  0.5 0.5 0.6  0.6 0.5 0.6  0.7 0.5 0.6  0.8 0.5 0.6  0.9 0.5 0.6  1 0.5 0.6  0.1 0.6 0.6  0 0.6 0.6  0.2 0.6 0.6  0.3 0.6 0.6  0.4 0.6 0.6  0.5 0.6 0.6  0.6 0.6 0.6  0.7 0.6 0.6  0.8 0.6 0.6  0.9 0.6 0.6  1 0.6 0.6  0.1 0.7 0.6  0 0.7 0.6  0.2 0.7 0.6  0.3 0.7 0.6  0.4 0.7 0.6  0.5 0.7 0.6  0.6 0.7 0.6  0.7 0.7 0.6  0.8 0.7 0.6  0.9 0.7 0.6  1 0.7 0.6  0.1 0.8 0.6  0 0.8 0.6  0.2 0.8 0.6  0.3 0.8 0.6  0.4 0.8 0.6  0.5 0.8 0.6  0.6 0.8 0.6  0.7 0.8 0.6  0.8 0.8 0.6  0.9 0.8 0.6  1 0.8 0.6  0.1 0.3 0.7  0.1 0.2 0.7  0 0.2 0.7  0 0.3 0.7  0.2 0.3 0.7  0.2 0.2 0.7  0.3 0.3 0.7  0.3 0.2 0.7  0.4 0.3 0.7  0.4 0.2 0.7  0.5 0.3 0.7  0.5 0.2 0.7  0.6 0.3 0.7  0.6 0.2 0.7  0.7 0.3 0.7  0.7 0.2 0.7  0.8 0.3 0.7  0.8 0.2 0.7  0.9 0.3 0.7  0.9 0.2 0.7  1 0.3 0.7  1 0.2 0.7  0.1 0.4 0.7  0 0.4 0.7  0.2 0.4 0.7  0.3 0.4 0.7  0.4 0.4 0.7  0.5 0.4 0.7  0.6 0.4 0.7  0.7 0.4 0.7  0.8 0.4 0.7  0.9 0.4 0.7  1 0.4 0.7  0.1 0.5 0.7  0 0.5 0.7  0.2 0.5 0.7  0.3 0.5 0.7  0.4 0.5 0.7  0.5 0.5 0.7  0.6 0.5 0.7  0.7 0.5 0.7  0.8 0.5 0.7  0.9 0.5 0.7  1 0.5 0.7  0.1 0.6 0.7  0 0.6 0.7  0.2 0.6 0.7  0.3 0.6 0.7  0.4 0.6 0.7  0.5 0.6 0.7  0.6 0.6 0.7  0.7 0.6 0.7  0.8 0.6 0.7  0.9 0.6 0.7  1 0.6 0.7  0.1 0.7 0.7  0 0.7 0.7  0.2 0.7 0.7  0.3 0.7 0.7  0.4 0.7 0.7  0.5 0.7 0.7  0.6 0.7 0.7  0.7 0.7 0.7  0.8 0.7 0.7  0.9 0.7 0.7  1 0.7 0.7  0.1 0.8 0.7  0 0.8 0.7  0.2 0.8 0.7  0.3 0.8 0.7  0.4 0.8 0.7  0.5 0.8 0.7  0.6 0.8 0.7  0.7 0.8 0.7  0.8 0.8 0.7  0.9 0.8 0.7  1 0.8 0.7  0.1 0.3 0.8  0.1 0.2 0.8  0 0.2 0.8  0 0.3 0.8  0.2 0.3 0.8  0.2 0.2 0.8  0.3 0.3 0.8  0.3 0.2 0.8  0.4 0.3 0.8  0.4 0.2 0.8  0.5 0.3 0.8  0.5 0.2 0.8  0.6 0.3 0.8  0.6 0.2 0.8  0.7 0.3 0.8  0.7 0.2 0.8  0.8 0.3 0.8  0.8 0.2 0.8  0.9 0.3 0.8  0.9 0.2 0.8  1 0.3 0.8  1 0.2 0.8  0.1 0.4 0.8  0 0.4 0.8  0.2 0.4 0.8  0.3 0.4 0.8  0.4 0.4 0.8  0.5 0.4 0.8  0.6 0.4 0.8  0.7 0.4 0.8  0.8 0.4 0.8  0.9 0.4 0.8  1 0.4 0.8  0.1 0.5 0.8  0 0.5 0.8  0.2 0.5 0.8  0.3 0.5 0.8  0.4 0.5 0.8  0.5 0.5 0.8  0.6 0.5 0.8  0.7 0.5 0.8  0.8 0.5 0.8  0.9 0.5 0.8  1 0.5 0.8  0.1 0.6 0.8  0 0.6 0.8  0.2 0.6 0.8  0.3 0.6 0.8  0.4 0.6 0.8  0.5 0.6 0.8  0.6 0.6 0.8  0.7 0.6 0.8  0.8 0.6 0.8  0.9 0.6 0.8  1 0.6 0.8  0.1 0.7 0.8  0 0.7 0.8  0.2 0.7 0.8  0.3 0.7 0.8  0.4 0.7 0.8  0.5 0.7 0.8  0.6 0.7 0.8  0.7 0.7 0.8  0.8 0.7 0.8  0.9 0.7 0.8  1 0.7 0.8  0.1 0.8 0.8  0 0.8 0.8  0.2 0.8 0.8  0.3 0.8 0.8  0.4 0.8 0.8  </DataArray>
</Points>
<Cells>
[...]
<PointData  Scalars="f_29"> 
<DataArray  type="Float64"  Name="f_29"  format="ascii">8.0000000000000000e+00  7.2125311871965039e+00  7.2127657317174423e+00  7.2127893819754920e+00  7.2126733309248392e+00  8.0000000000000000e+00  8.0000000000000000e+00  8.0000000000000000e+00  6.4239975242746503e+00  6.4243236881385473e+00  6.4242942575347470e+00  6.4241792418168933e+00  5.6343687955730335e+00  5.6347869258300589e+00  5.6347315844550403e+00  5.6345985141042529e+00  4.8432496841741370e+00  4.8438078033935561e+00  4.8437684829824770e+00  4.8435872277664203e+00  4.0499522145489886e+00  4.0507252024494873e+00  4.0507649020015455e+00  4.0505063510276678e+00  3.2533738163154942e+00  3.2544512349311234e+00  3.2546796683575550e+00  3.2542969852950563e+00  2.4518799804247551e+00  2.4533137116731023e+00  2.4538727905312214e+00  2.4532951860937828e+00  1.6434046038801140e+00  1.6451085314701990e+00  1.6460712966394164e+00  1.6452101029284096e+00  8.2608842683306360e-01  8.2760553812318682e-01  8.2865378509263876e-01  8.2749665923070392e-01  0.0000000000000000e+00  0.0000000000000000e+00  0.0000000000000000e+00  0.0000000000000000e+00  7.2130033439756884e+00  7.2129019573842346e+00  8.0000000000000000e+00  8.0000000000000000e+00  6.4247434081406798e+00  6.4245222675815192e+00  5.6353514499886987e+00  5.6350613236875429e+00  4.8445165811840312e+00  4.8442125661873687e+00  4.0516140409085244e+00  4.0513526669055713e+00  3.2555986839622193e+00  3.2554927448074391e+00  2.4547958774030301e+00  2.4550154982501846e+00  1.6468870758981444e+00  1.6475759491093884e+00  8.2923854264376617e-01  8.3020162779894824e-01  0.0000000000000000e+00  0.0000000000000000e+00  7.2131933128376273e+00  7.2129770187484628e+00  8.0000000000000000e+00  8.0000000000000000e+00  6.4251393875862011e+00  6.4247738622310022e+00  5.6358752547842403e+00  5.6354494112422904e+00  4.8450410141387632e+00  4.8446290987139840e+00  4.0520392319538745e+00  4.0516862736291408e+00  3.2559110597448560e+00  3.2557335026105054e+00  2.4550540324024195e+00  2.4552289225139488e+00  1.6471718921851966e+00  1.6478405020717357e+00  8.2954859776629231e-01  8.3052081395973254e-01  0.0000000000000000e+00  0.0000000000000000e+00  7.2132577525735968e+00  7.2129977788602995e+00  8.0000000000000000e+00  8.0000000000000000e+00  6.4254131385093416e+00  6.4250557044913421e+00  5.6362514040400518e+00  5.6359175771536068e+00  4.8452523945692683e+00  4.8449904773837114e+00  4.0518287581113626e+00  4.0516245214494138e+00  3.2551672187057896e+00  3.2551350765443465e+00  2.4538174427455592e+00  2.4541349173624361e+00  1.6456715087761782e+00  1.6464584298910176e+00  8.2831074925303938e-01  8.2936157776847852e-01  0.0000000000000000e+00  0.0000000000000000e+00  7.2131501906026489e+00  7.2130052917843308e+00  8.0000000000000000e+00  8.0000000000000000e+00  6.4254328381150785e+00  6.4253540950512500e+00  5.6363165387375043e+00  5.6363938380645386e+00  4.8451044917480584e+00  4.8453288778143433e+00  4.0511468713027305e+00  4.0513446297310756e+00  3.2538030382179937e+00  3.2540840228260026e+00  2.4517914122985789e+00  2.4523457688552481e+00  1.6432300037246481e+00  1.6441595952025219e+00  8.2620352318021972e-01  8.2730661756769830e-01  0.0000000000000000e+00  0.0000000000000000e+00  7.2130754550401424e+00  7.2131116503951285e+00  8.0000000000000000e+00  8.0000000000000000e+00  6.4253898484504886e+00  6.4255857827542542e+00  5.6363054413872318e+00  5.6367135785363045e+00  4.8450130318287679e+00  4.8455401906980038e+00  4.0508089298921712e+00  4.0512177660597501e+00  3.2531899395232813e+00  3.2536022634504818e+00  2.4509372866998311e+00  2.4515345803057289e+00  1.6422202278472711e+00  1.6430606401828334e+00  8.2529408735971344e-01  8.2616763770292212e-01  0.0000000000000000e+00  0.0000000000000000e+00  7.2128367487650245e+00  7.2128543680410528e+00  8.0000000000000000e+00  8.0000000000000000e+00  6.4244938721411691e+00  6.4245778640034654e+00  5.6351848432088545e+00  5.6352927475943613e+00  4.8446884483001593e+00  4.8447782511536888e+00  4.0525036691077441e+00  4.0525570705983336e+00  3.2577137097813837e+00  3.2576867461235239e+00  2.4585001650415830e+00  2.4582814963984378e+00  1.6517513635982224e+00  1.6511359635944498e+00  8.3332529862405280e-01  8.3208776555596797e-01  0.0000000000000000e+00  0.0000000000000000e+00  7.2128380574203792e+00  8.0000000000000000e+00  6.4245272976505818e+00  5.6352568029466905e+00  4.8448214831454930e+00  4.0527055028424801e+00  3.2580956524418396e+00  2.4592224306995512e+00  1.6528948249003041e+00  8.3465466563709056e-01  0.0000000000000000e+00  7.2129006692030417e+00  8.0000000000000000e+00  6.4248506146530566e+00  5.6357523486199463e+00  4.8453261845399389e+00  4.0529831828189051e+00  3.2581501169801226e+00  2.4591702502827117e+00  1.6528914823789989e+00  8.3475309677037224e-01  0.0000000000000000e+00  7.2131256997326672e+00  8.0000000000000000e+00  6.4256414801409809e+00  5.6370544525034365e+00  4.8465492253580900e+00  4.0534200431331451e+00  3.2577186310723585e+00  2.4580145451157085e+00  1.6513569226548364e+00  8.3343421624576752e-01  0.0000000000000000e+00  7.2135865136664199e+00  8.0000000000000000e+00  6.4268939394237083e+00  5.6389925331227371e+00  4.8486126524418820e+00  4.0541307781076901e+00  3.2570327908200967e+00  2.4561726727756641e+00  1.6487471862884786e+00  8.3107702694087970e-01  0.0000000000000000e+00  7.2140403612071227e+00  8.0000000000000000e+00  6.4278017451093170e+00  5.6402869965870117e+00  4.8497219998998755e+00  4.0544125919175684e+00  3.2565987570111878e+00  2.4551667109473438e+00  1.6472656299827066e+00  8.2955560845022269e-01  0.0000000000000000e+00  7.2129415657388929e+00  7.2130937488079505e+00  8.0000000000000000e+00  8.0000000000000000e+00  6.4249528057049821e+00  6.4252086374940305e+00  5.6361875087715569e+00  5.6364708816927287e+00  4.8465422669670239e+00  4.8468009585701912e+00  4.0557934085397704e+00  4.0560315530497153e+00  3.2634197460325334e+00  3.2635959426406509e+00  2.4675556972939421e+00  2.4675154350661219e+00  1.6634654653969541e+00  1.6628175820274409e+00  8.4344588382152252e-01  8.4157398165745645e-01  0.0000000000000000e+00  0.0000000000000000e+00  7.2129027562014336e+00  8.0000000000000000e+00  6.4250120060341436e+00  5.6363004249731983e+00  4.8466769488271515e+00  4.0558512765858028e+00  3.2635726063048391e+00  2.4680658005941085e+00  1.6644373157103529e+00  8.4453067691986894e-01  0.0000000000000000e+00  7.2132204479953534e+00  8.0000000000000000e+00  6.4259389116357921e+00  5.6375796845172319e+00  4.8479333158906197e+00  4.0564654112243845e+00  3.2636149125016423e+00  2.4677583577030502e+00  1.6640698671706591e+00  8.4427008718430041e-01  0.0000000000000000e+00  7.2141083224019704e+00  8.0000000000000000e+00  6.4281044438322379e+00  5.6412016961678519e+00  4.8515500998271337e+00  4.0581109010166019e+00  3.2635184347386978e+00  2.4663232799996391e+00  1.6619924278350038e+00  8.4257909288480570e-01  0.0000000000000000e+00  7.2155956789224316e+00  8.0000000000000000e+00  6.4316083015262775e+00  5.6468558854592814e+00  4.8588771533452935e+00  4.0610326808022439e+00  3.2632776190613897e+00  2.4639171397229624e+00  1.6582258668542944e+00  8.3923363124313977e-01  0.0000000000000000e+00  7.2168960242799933e+00  8.0000000000000000e+00  6.4343438588395063e+00  5.6510481158212915e+00  4.8624908251946950e+00  4.0621499769222416e+00  3.2626576353520962e+00  2.4620792355170988e+00  1.6553045330140010e+00  8.3613949158391931e-01  0.0000000000000000e+00  7.2130723068902514e+00  7.2132995933189319e+00  8.0000000000000000e+00  8.0000000000000000e+00  6.4256035206377655e+00  6.4259044951124329e+00  5.6375738753296387e+00  5.6378497744806202e+00  4.8489375498286638e+00  4.8491781385777522e+00  4.0599210186823864e+00  4.0602056972621181e+00  3.2709120644146346e+00  3.2712038027421437e+00  2.4809990927490500e+00  2.4810957275766468e+00  1.6848339482147225e+00  1.6840654569779199e+00  8.6508206235877794e-01  8.6129372111535818e-01  0.0000000000000000e+00  0.0000000000000000e+00  7.2131783506694749e+00  8.0000000000000000e+00  6.4260657136260200e+00  5.6383564586808284e+00  4.8496990919819130e+00  4.0601859954893254e+00  3.2709660878573179e+00  2.4813751469647944e+00  1.6858426505298272e+00  8.6585365009425497e-01  0.0000000000000000e+00  7.2141218950639106e+00  8.0000000000000000e+00  6.4283024434638945e+00  5.6418618156051270e+00  4.8532328115774508e+00  4.0619136170678907e+00  3.2713789275368059e+00  2.4810371666840383e+00  1.6850926091712215e+00  8.6512551939289084e-01  0.0000000000000000e+00  7.2166018139451928e+00  8.0000000000000000e+00  6.4335753590680449e+00  5.6514877928564964e+00  4.8632167667028501e+00  4.0662065541717247e+00  3.2720619191643681e+00  2.4792251530703653e+00  1.6814121552955963e+00  8.6238170644794521e-01  0.0000000000000000e+00  7.2202139767806974e+00  8.0000000000000000e+00  6.4421180382297401e+00  5.6662301647467217e+00  4.8883887818529583e+00  4.0736739936847632e+00  3.2723383404018054e+00  2.4754507208008008e+00  1.6745200462669372e+00  8.5627305665380093e-01  0.0000000000000000e+00  7.2233984019955049e+00  8.0000000000000000e+00  6.4498115127081368e+00  5.6795070402069117e+00  4.8985733837955960e+00  4.0764049060419412e+00  3.2709534512930616e+00  2.4712175357857755e+00  1.6669184539077460e+00  8.4682504169909700e-01  0.0000000000000000e+00  7.2132039818819189e+00  7.2133572026155441e+00  8.0000000000000000e+00  8.0000000000000000e+00  6.4262418307905289e+00  6.4263424275206065e+00  5.6388467161900628e+00  5.6388410730925411e+00  4.8510510368249928e+00  4.8510050643525657e+00  4.0635247632415101e+00  4.0636902915002446e+00  3.2783160714627959e+00  3.2786527295674803e+00  2.4974086624063356e+00  2.4976820278660292e+00  1.7204332673715941e+00  1.7203865881806109e+00  9.3141852727492336e-01  9.3285585046436104e-01  0.0000000000000000e+00  0.0000000000000000e+00  7.2136906435975323e+00  8.0000000000000000e+00  6.4275241182911227e+00  5.6408773634135692e+00  4.8532225350298512e+00  4.0643585844449630e+00  3.2782511713571898e+00  2.4973618703156957e+00  1.7212933293257306e+00  9.3243772085021082e-01  0.0000000000000000e+00  7.2156049034114407e+00  8.0000000000000000e+00  6.4319167036729654e+00  5.6479623630611080e+00  4.8618616617322861e+00  4.0681987535275486e+00  3.2792770539084208e+00  2.4972196097292141e+00  1.7207788966189042e+00  9.3162557958618963e-01  0.0000000000000000e+00  7.2201847744484091e+00  8.0000000000000000e+00  6.4421911447492093e+00  5.6666381048914651e+00  4.8897008984475310e+00  4.0772488592838290e+00  3.2812587352800109e+00  2.4960132459269704e+00  1.7171153944703184e+00  9.2578504014739871e-01  0.0000000000000000e+00  7.2282751266898693e+00  8.0000000000000000e+00  6.4627318664015432e+00  5.7070515217496407e+00  4.9935289281252730e+00  4.0904404582507778e+00  3.2806067325917057e+00  2.4891853304844691e+00  1.7017985507906734e+00  8.9899665186132360e-01  0.0000000000000000e+00  7.2354766853822348e+00  8.0000000000000000e+00  6.4822031030729210e+00  5.7556367128737369e+00  5.0123631097402654e+00  4.0943753359312716e+00  3.2764082475759517e+00  2.4772470649144567e+00  1.6764468989564030e+00  8.5830777933894664e-01  0.0000000000000000e+00  7.2133762358552200e+00  7.2133638610780277e+00  8.0000000000000000e+00  8.0000000000000000e+00  6.4266136542060641e+00  6.4264718183557088e+00  5.6394636134168907e+00  5.6391743256373363e+00  4.8519202440929794e+00  4.8516199672563189e+00  4.0649764402939130e+00  4.0649159706207580e+00  3.2820972276530140e+00  3.2819632791073414e+00  2.5097952593340840e+00  2.5083745356903999e+00  1.7646162534555794e+00  1.7582173121566202e+00  1.0960952629626730e+00  1.0743496903475604e+00  7.1912147252533221e-01  6.6700304009806743e-01  7.2141744288318028e+00  8.0000000000000000e+00  6.4285068784248711e+00  5.6423692424757217e+00  4.8548528668587227e+00  4.0660673269877465e+00  3.2820050072203113e+00  2.5098922221480033e+00  1.7672490712550049e+00  1.1066924740139878e+00  7.4557786678917071e-01  7.2169048998049794e+00  8.0000000000000000e+00  6.4346814542187634e+00  5.6522969646055135e+00  4.8659640774606885e+00  4.0708503953449293e+00  3.2833237210420680e+00  2.5102396909791795e+00  1.7682624279734103e+00  1.1098023504292784e+00  7.5178064347319506e-01  7.2233490212350082e+00  8.0000000000000000e+00  6.4498913627840757e+00  5.6800581790425131e+00  4.9004869467216450e+00  4.0821380571388071e+00  3.2863618615606303e+00  2.5110937675909608e+00  1.7691499754740974e+00  1.1119444076027805e+00  7.5483920864088538e-01  7.2354467519941990e+00  8.0000000000000000e+00  6.4822060730428808e+00  5.7558503795700640e+00  5.0132835866541550e+00  4.0986930220266986e+00  3.2892596577414883e+00  2.5132037233008333e+00  1.7750667823231165e+00  1.1274155571062725e+00  7.6404630689351571e-01  7.2523167464861480e+00  8.0000000000000000e+00  6.5488866298711610e+00  6.0517705452412160e+00  4.9994531012523975e+00  </DataArray> 
</PointData> 
</Piece>
</UnstructuredGrid>
</VTKFile>