<?xml version="1.0"?>
<VTKFile type="UnstructuredGrid"  version="0.1"  >
<UnstructuredGrid>
<Piece  NumberOfPoints="1331" NumberOfCells="6000">
<Points>
<DataArray  type="Float64"  NumberOfComponents="3"  format="ascii">0 0 0  0.1 0 0  0.2 0 0  0.3 0 0  0.4 0 0  0.5 0 0  0.6 0 0  0.7 0 0  0.8 0 0  0.9 0 0  1 0 0  0 0.1 0  0.1 0.1 0  0.2 0.1 0  0.3 0.1 0  0.4 0.1 0  0.5 0.1 0  0.6 0.1 0  0.7 0.1 0  0.8 0.1 0  0.9 0.1 0  1 0.1 0  0 0.2 0  0.1 0.2 0  0.2 0.2 0  0.3 0.2 0  0.4 0.2 0  0.5 0.2 0  0.6 0.2 0  0.7 0.2 0  0.8 0.2 0  0.9 0.2 0  1 0.2 0  0 0.3 0  0.1 0.3 0  0.2 0.3 0  0.3 0.3 0  0.4 0.3 0  0.5 0.3 0  0.6 0.3 0  0.7 0.3 0  0.8 0.3 0  0.9 0.3 0  1 0.3 0  0 0.4 0  0.1 0.4 0  0.2 0.4 0  0.3 0.4 0  0.4 0.4 0  0.5 0.4 0  0.6 0.4 0  0.7 0.4 0  0.8 0.4 0  0.9 0.4 0  1 0.4 0  0 0.5 0  0.1 0.5 0  0.2 0.5 0  0.3 0.5 0  0.4 0.5 0  0.5 0.5 0  0.6 0.5 0  0.7 0.5 0  0.8 0.5 0  0.9 0.5 0  1 0.5 0  0 0.6 0  0.1 0.6 0  0.2 0.6 0  0.3 0.6 0  0.4 0.6 0  0.5 0.6 0  0.6 0.6 0  0.7 0.6 0  0.8 0.6 0  0.9 0.6 0  1 0.6 0  0 0.7 0  0.1 0.7 0  0.2 0.7 0  0.3 0.7 0  0.4 0.7 0  0.5 0.7 0  0.6 0.7 0  0.7 0.7 0  0.8 0.7 0  0.9 0.7 0  1 0.7 0  0 0.8 0  0.1 0.8 0  0.2 0.8 0  0.3 0.8 0  0.4 0.8 0  0.5 0.8 0  0.6 0.8 0  0.7 0.8 0  0.8 0.8 0  0.9 0.8 0  1 0.8 0  0 0.9 0  0.1 0.9 0  0.2 0.9 0  0.3 0.9 0  0.4 0.9 0  0.5 0.9 0  0.6 0.9 0  0.7 0.9 0  0.8 0.9 0  0.9 0.9 0  1 0.9 0  0 1 0  0.1 1 0  0.2 1 0  0.3 1 0  0.4 1 0  0.5 1 0  0.6 1 0  0.7 1 0  0.8 1 0  0.9 1 0  1 1 0  0 0 0.1  0.1 0 0.1  0.2 0 0.1  0.3 0 0.1  0.4 0 0.1  0.5 0 0.1  0.6 0 0.1  0.7 0 0.1  0.8 0 0.1  0.9 0 0.1  1 0 0.1  0 0.1 0.1  0.1 0.1 0.1  0.2 0.1 0.1  0.3 0.1 0.1  0.4 0.1 0.1  0.5 0.1 0.1  0.6 0.1 0.1  0.7 0.1 0.1  0.8 0.1 0.1  0.9 0.1 0.1  1 0.1 0.1  0 0.2 0.1  0.1 0.2 0.1  0.2 0.2 0.1  0.3 0.2 0.1  0.4 0.2 0.1  0.5 0.2 0.1  0.6 0.2 0.1  0.7 0.2 0.1  0.8 0.2 0.1  0.9 0.2 0.1  1 0.2 0.1  0 0.3 0.1  0.1 0.3 0.1  0.2 0.3 0.1  0.3 0.3 0.1  0.4 0.3 0.1  0.5 0.3 0.1  0.6 0.3 0.1  0.7 0.3 0.1  0.8 0.3 0.1  0.9 0.3 0.1  1 0.3 0.1  0 0.4 0.1  0.1 0.4 0.1  0.2 0.4 0.1  0.3 0.4 0.1  0.4 0.4 0.1  0.5 0.4 0.1  0.6 0.4 0.1  0.7 0.4 0.1  0.8 0.4 0.1  0.9 0.4 0.1  1 0.4 0.1  0 0.5 0.1  0.1 0.5 0.1  0.2 0.5 0.1  0.3 0.5 0.1  0.4 0.5 0.1  0.5 0.5 0.1  0.6 0.5 0.1  0.7 0.5 0.1  0.8 0.5 0.1  0.9 0.5 0.1  1 0.5 0.1  0 0.6 0.1  0.1 0.6 0.1  0.2 0.6 0.1  0.3 0.6 0.1  0.4 0.6 0.1  0.5 0.6 0.1  0.6 0.6 0.1  0.7 0.6 0.1  0.8 0.6 0.1  0.9 0.6 0.1  1 0.6 0.1  0 0.7 0.1  0.1 0.7 0.1  0.2 0.7 0.1  0.3 0.7 0.1  0.4 0.7 0.1  0.5 0.7 0.1  0.6 0.7 0.1  0.7 0.7 0.1  0.8 0.7 0.1  0.9 0.7 0.1  1 0.7 0.1  0 0.8 0.1  0.1 0.8 0.1  0.2 0.8 0.1  0.3 0.8 0.1  0.4 0.8 0.1  0.5 0.8 0.1  0.6 0.8 0.1  0.7 0.8 0.1  0.8 0.8 0.1  0.9 0.8 0.1  1 0.8 0.1  0 0.9 0.1  0.1 0.9 0.1  0.2 0.9 0.1  0.3 0.9 0.1  0.4 0.9 0.1  0.5 0.9 0.1  0.6 0.9 0.1  0.7 0.9 0.1  0.8 0.9 0.1  0.9 0.9 0.1  1 0.9 0.1  0 1 0.1  0.1 1 0.1  0.2 1 0.1  0.3 1 0.1  0.4 1 0.1  0.5 1 0.1  0.6 1 0.1  0.7 1 0.1  0.8 1 0.1  0.9 1 0.1  1 1 0.1  0 0 0.2  0.1 0 0.2  0.2 0 0.2  0.3 0 0.2  0.4 0 0.2  0.5 0 0.2  0.6 0 0.2  0.7 0 0.2  0.8 0 0.2  0.9 0 0.2  1 0 0.2  0 0.1 0.2  0.1 0.1 0.2  0.2 0.1 0.2  0.3 0.1 0.2  0.4 0.1 0.2  0.5 0.1 0.2  0.6 0.1 0.2  0.7 0.1 0.2  0.8 0.1 0.2  0.9 0.1 0.2  1 0.1 0.2  0 0.2 0.2  0.1 0.2 0.2  0.2 0.2 0.2  0.3 0.2 0.2  0.4 0.2 0.2  0.5 0.2 0.2  0.6 0.2 0.2  0.7 0.2 0.2  0.8 0.2 0.2  0.9 0.2 0.2  1 0.2 0.2  0 0.3 0.2  0.1 0.3 0.2  0.2 0.3 0.2  0.3 0.3 0.2  0.4 0.3 0.2  0.5 0.3 0.2  0.6 0.3 0.2  0.7 0.3 0.2  0.8 0.3 0.2  0.9 0.3 0.2  1 0.3 0.2  0 0.4 0.2  0.1 0.4 0.2  0.2 0.4 0.2  0.3 0.4 0.2  0.4 0.4 0.2  0.5 0.4 0.2  0.6 0.4 0.2  0.7 0.4 0.2  0.8 0.4 0.2  0.9 0.4 0.2  1 0.4 0.2  0 0.5 0.2  0.1 0.5 0.2  0.2 0.5 0.2  0.3 0.5 0.2  0.4 0.5 0.2  0.5 0.5 0.2  0.6 0.5 0.2  0.7 0.5 0.2  0.8 0.5 0.2  0.9 0.5 0.2  1 0.5 0.2  0 0.6 0.2  0.1 0.6 0.2  0.2 0.6 0.2  0.3 0.6 0.2  0.4 0.6 0.2  0.5 0.6 0.2  0.6 0.6 0.2  0.7 0.6 0.2  0.8 0.6 0.2  0.9 0.6 0.2  1 0.6 0.2  0 0.7 0.2  0.1 0.7 0.2  0.2 0.7 0.2  0.3 0.7 0.2  0.4 0.7 0.2  0.5 0.7 0.2  0.6 0.7 0.2  0.7 0.7 0.2  0.8 0.7 0.2  0.9 0.7 0.2  1 0.7 0.2  0 0.8 0.2  0.1 0.8 0.2  0.2 0.8 0.2  0.3 0.8 0.2  0.4 0.8 0.2  0.5 0.8 0.2  0.6 0.8 0.2  0.7 0.8 0.2  0.8 0.8 0.2  0.9 0.8 0.2  1 0.8 0.2  0 0.9 0.2  0.1 0.9 0.2  0.2 0.9 0.2  0.3 0.9 0.2  0.4 0.9 0.2  0.5 0.9 0.2  0.6 0.9 0.2  0.7 0.9 0.2  0.8 0.9 0.2  0.9 0.9 0.2  1 0.9 0.2  0 1 0.2  0.1 1 0.2  0.2 1 0.2  0.3 1 0.2  0.4 1 0.2  0.5 1 0.2  0.6 1 0.2  0.7 1 0.2  0.8 1 0.2  0.9 1 0.2  1 1 0.2  0 0 0.3  0.1 0 0.3  0.2 0 0.3  0.3 0 0.3  0.4 0 0.3  0.5 0 0.3  0.6 0 0.3  0.7 0 0.3  0.8 0 0.3  0.9 0 0.3  1 0 0.3  0 0.1 0.3  0.1 0.1 0.3  0.2 0.1 0.3  0.3 0.1 0.3  0.4 0.1 0.3  0.5 0.1 0.3  0.6 0.1 0.3  0.7 0.1 0.3  0.8 0.1 0.3  0.9 0.1 0.3  1 0.1 0.3  0 0.2 0.3  0.1 0.2 0.3  0.2 0.2 0.3  0.3 0.2 0.3  0.4 0.2 0.3  0.5 0.2 0.3  0.6 0.2 0.3  0.7 0.2 0.3  0.8 0.2 0.3  0.9 0.2 0.3  1 0.2 0.3  0 0.3 0.3  0.1 0.3 0.3  0.2 0.3 0.3  0.3 0.3 0.3  0.4 0.3 0.3  0.5 0.3 0.3  0.6 0.3 0.3  0.7 0.3 0.3  0.8 0.3 0.3  0.9 0.3 0.3  1 0.3 0.3  0 0.4 0.3  0.1 0.4 0.3  0.2 0.4 0.3  0.3 0.4 0.3  0.4 0.4 0.3  0.5 0.4 0.3  0.6 0.4 0.3  0.7 0.4 0.3  0.8 0.4 0.3  0.9 0.4 0.3  1 0.4 0.3  0 0.5 0.3  0.1 0.5 0.3  0.2 0.5 0.3  0.3 0.5 0.3  0.4 0.5 0.3  0.5 0.5 0.3  0.6 0.5 0.3  0.7 0.5 0.3  0.8 0.5 0.3  0.9 0.5 0.3  1 0.5 0.3  0 0.6 0.3  0.1 0.6 0.3  0.2 0.6 0.3  0.3 0.6 0.3  0.4 0.6 0.3  0.5 0.6 0.3  0.6 0.6 0.3  0.7 0.6 0.3  0.8 0.6 0.3  0.9 0.6 0.3  1 0.6 0.3  0 0.7 0.3  0.1 0.7 0.3  0.2 0.7 0.3  0.3 0.7 0.3  0.4 0.7 0.3  0.5 0.7 0.3  0.6 0.7 0.3  0.7 0.7 0.3  0.8 0.7 0.3  0.9 0.7 0.3  1 0.7 0.3  0 0.8 0.3  0.1 0.8 0.3  0.2 0.8 0.3  0.3 0.8 0.3  0.4 0.8 0.3  0.5 0.8 0.3  0.6 0.8 0.3  0.7 0.8 0.3  0.8 0.8 0.3  0.9 0.8 0.3  1 0.8 0.3  0 0.9 0.3  0.1 0.9 0.3  0.2 0.9 0.3  0.3 0.9 0.3  0.4 0.9 0.3  0.5 0.9 0.3  0.6 0.9 0.3  0.7 0.9 0.3  0.8 0.9 0.3  0.9 0.9 0.3  1 0.9 0.3  0 1 0.3  0.1 1 0.3  0.2 1 0.3  0.3 1 0.3  0.4 1 0.3  0.5 1 0.3  0.6 1 0.3  0.7 1 0.3  0.8 1 0.3  0.9 1 0.3  1 1 0.3  0 0 0.4  0.1 0 0.4  0.2 0 0.4  0.3 0 0.4  0.4 0 0.4  0.5 0 0.4  0.6 0 0.4  0.7 0 0.4  0.8 0 0.4  0.9 0 0.4  1 0 0.4  0 0.1 0.4  0.1 0.1 0.4  0.2 0.1 0.4  0.3 0.1 0.4  0.4 0.1 0.4  0.5 0.1 0.4  0.6 0.1 0.4  0.7 0.1 0.4  0.8 0.1 0.4  0.9 0.1 0.4  1 0.1 0.4  0 0.2 0.4  0.1 0.2 0.4  0.2 0.2 0.4  0.3 0.2 0.4  0.4 0.2 0.4  0.5 0.2 0.4  0.6 0.2 0.4  0.7 0.2 0.4  0.8 0.2 0.4  0.9 0.2 0.4  1 0.2 0.4  0 0.3 0.4  0.1 0.3 0.4  0.2 0.3 0.4  0.3 0.3 0.4  0.4 0.3 0.4  0.5 0.3 0.4  0.6 0.3 0.4  0.7 0.3 0.4  0.8 0.3 0.4  0.9 0.3 0.4  1 0.3 0.4  0 0.4 0.4  0.1 0.4 0.4  0.2 0.4 0.4  0.3 0.4 0.4  0.4 0.4 0.4  0.5 0.4 0.4  0.6 0.4 0.4  0.7 0.4 0.4  0.8 0.4 0.4  0.9 0.4 0.4  1 0.4 0.4  0 0.5 0.4  0.1 0.5 0.4  0.2 0.5 0.4  0.3 0.5 0.4  0.4 0.5 0.4  0.5 0.5 0.4  0.6 0.5 0.4  0.7 0.5 0.4  0.8 0.5 0.4  0.9 0.5 0.4  1 0.5 0.4  0 0.6 0.4  0.1 0.6 0.4  0.2 0.6 0.4  0.3 0.6 0.4  0.4 0.6 0.4  0.5 0.6 0.4  0.6 0.6 0.4  0.7 0.6 0.4  0.8 0.6 0.4  0.9 0.6 0.4  1 0.6 0.4  0 0.7 0.4  0.1 0.7 0.4  0.2 0.7 0.4  0.3 0.7 0.4  0.4 0.7 0.4  0.5 0.7 0.4  0.6 0.7 0.4  0.7 0.7 0.4  0.8 0.7 0.4  0.9 0.7 0.4  1 0.7 0.4  0 0.8 0.4  0.1 0.8 0.4  0.2 0.8 0.4  0.3 0.8 0.4  0.4 0.8 0.4  0.5 0.8 0.4  0.6 0.8 0.4  0.7 0.8 0.4  0.8 0.8 0.4  0.9 0.8 0.4  1 0.8 0.4  0 0.9 0.4  0.1 0.9 0.4  0.2 0.9 0.4  0.3 0.9 0.4  0.4 0.9 0.4  0.5 0.9 0.4  0.6 0.9 0.4  0.7 0.9 0.4  0.8 0.9 0.4  0.9 0.9 0.4  1 0.9 0.4  0 1 0.4  0.1 1 0.4  0.2 1 0.4  0.3 1 0.4  0.4 1 0.4  0.5 1 0.4  0.6 1 0.4  0.7 1 0.4  0.8 1 0.4  0.9 1 0.4  1 1 0.4  0 0 0.5  0.1 0 0.5  0.2 0 0.5  0.3 0 0.5  0.4 0 0.5  0.5 0 0.5  0.6 0 0.5  0.7 0 0.5  0.8 0 0.5  0.9 0 0.5  1 0 0.5  0 0.1 0.5  0.1 0.1 0.5  0.2 0.1 0.5  0.3 0.1 0.5  0.4 0.1 0.5  0.5 0.1 0.5  0.6 0.1 0.5  0.7 0.1 0.5  0.8 0.1 0.5  0.9 0.1 0.5  1 0.1 0.5  0 0.2 0.5  0.1 0.2 0.5  0.2 0.2 0.5  0.3 0.2 0.5  0.4 0.2 0.5  0.5 0.2 0.5  0.6 0.2 0.5  0.7 0.2 0.5  0.8 0.2 0.5  0.9 0.2 0.5  1 0.2 0.5  0 0.3 0.5  0.1 0.3 0.5  0.2 0.3 0.5  0.3 0.3 0.5  0.4 0.3 0.5  0.5 0.3 0.5  0.6 0.3 0.5  0.7 0.3 0.5  0.8 0.3 0.5  0.9 0.3 0.5  1 0.3 0.5  0 0.4 0.5  0.1 0.4 0.5  0.2 0.4 0.5  0.3 0.4 0.5  0.4 0.4 0.5  0.5 0.4 0.5  0.6 0.4 0.5  0.7 0.4 0.5  0.8 0.4 0.5  0.9 0.4 0.5  1 0.4 0.5  0 0.5 0.5  0.1 0.5 0.5  0.2 0.5 0.5  0.3 0.5 0.5  0.4 0.5 0.5  0.5 0.5 0.5  0.6 0.5 0.5  0.7 0.5 0.5  0.8 0.5 0.5  0.9 0.5 0.5  1 0.5 0.5  0 0.6 0.5  0.1 0.6 0.5  0.2 0.6 0.5  0.3 0.6 0.5  0.4 0.6 0.5  0.5 0.6 0.5  0.6 0.6 0.5  0.7 0.6 0.5  0.8 0.6 0.5  0.9 0.6 0.5  1 0.6 0.5  0 0.7 0.5  0.1 0.7 0.5  0.2 0.7 0.5  0.3 0.7 0.5  0.4 0.7 0.5  0.5 0.7 0.5  0.6 0.7 0.5  0.7 0.7 0.5  0.8 0.7 0.5  0.9 0.7 0.5  1 0.7 0.5  0 0.8 0.5  0.1 0.8 0.5  0.2 0.8 0.5  0.3 0.8 0.5  0.4 0.8 0.5  0.5 0.8 0.5  0.6 0.8 0.5  0.7 0.8 0.5  0.8 0.8 0.5  0.9 0.8 0.5  1 0.8 0.5  0 0.9 0.5  0.1 0.9 0.5  0.2 0.9 0.5  0.3 0.9 0.5  0.4 0.9 0.5  0.5 0.9 0.5  0.6 0.9 0.5  0.7 0.9 0.5  0.8 0.9 0.5  0.9 0.9 0.5  1 0.9 0.5  0 1 0.5  0.1 1 0.5  0.2 1 0.5  0.3 1 0.5  0.4 1 0.5  0.5 1 0.5  0.6 1 0.5  0.7 1 0.5  0.8 1 0.5  0.9 1 0.5  1 1 0.5  0 0 0.6  0.1 0 0.6  0.2 0 0.6  0.3 0 0.6  0.4 0 0.6  0.5 0 0.6  0.6 0 0.6  0.7 0 0.6  0.8 0 0.6  0.9 0 0.6  1 0 0.6  0 0.1 0.6  0.1 0.1 0.6  0.2 0.1 0.6  0.3 0.1 0.6  0.4 0.1 0.6  0.5 0.1 0.6  0.6 0.1 0.6  0.7 0.1 0.6  0.8 0.1 0.6  0.9 0.1 0.6  1 0.1 0.6  0 0.2 0.6  0.1 0.2 0.6  0.2 0.2 0.6  0.3 0.2 0.6  0.4 0.2 0.6  0.5 0.2 0.6  0.6 0.2 0.6  0.7 0.2 0.6  0.8 0.2 0.6  0.9 0.2 0.6  1 0.2 0.6  0 0.3 0.6  0.1 0.3 0.6  0.2 0.3 0.6  0.3 0.3 0.6  0.4 0.3 0.6  0.5 0.3 0.6  0.6 0.3 0.6  0.7 0.3 0.6  0.8 0.3 0.6  0.9 0.3 0.6  1 0.3 0.6  0 0.4 0.6  0.1 0.4 0.6  0.2 0.4 0.6  0.3 0.4 0.6  0.4 0.4 0.6  0.5 0.4 0.6  0.6 0.4 0.6  0.7 0.4 0.6  0.8 0.4 0.6  0.9 0.4 0.6  1 0.4 0.6  0 0.5 0.6  0.1 0.5 0.6  0.2 0.5 0.6  0.3 0.5 0.6  0.4 0.5 0.6  0.5 0.5 0.6  0.6 0.5 0.6  0.7 0.5 0.6  0.8 0.5 0.6  0.9 0.5 0.6  1 0.5 0.6  0 0.6 0.6  0.1 0.6 0.6  0.2 0.6 0.6  0.3 0.6 0.6  0.4 0.6 0.6  0.5 0.6 0.6  0.6 0.6 0.6  0.7 0.6 0.6  0.8 0.6 0.6  0.9 0.6 0.6  1 0.6 0.6  0 0.7 0.6  0.1 0.7 0.6  0.2 0.7 0.6  0.3 0.7 0.6  0.4 0.7 0.6  0.5 0.7 0.6  0.6 0.7 0.6  0.7 0.7 0.6  0.8 0.7 0.6  0.9 0.7 0.6  1 0.7 0.6  0 0.8 0.6  0.1 0.8 0.6
[...]
<PointData  Scalars="f_55"> 
<DataArray  type="Float64"  Name="f_55"  format="ascii">1.9800430843385234e-02  4.9046237597947275e-02  4.9042501013039176e-02  4.4414859749275212e-02  3.6564227608414983e-02  2.8415591548624806e-02  2.1320474811835664e-02  1.6391925790529623e-02  1.3441189591943603e-02  7.7168898387176346e-03  4.3669591554494078e-03  -4.0143508683818468e-01  -2.2071847307247758e-01  -1.3329579513717879e-01  -8.2202435932209189e-02  -5.1276181083033286e-02  -3.2715987440879543e-02  -2.1334469322293468e-02  -1.3519812808815517e-02  -8.3708665804892810e-03  -9.2096727785849694e-03  -6.0461671905329062e-03  -4.5842577398313417e-01  -2.3464615592377591e-01  -1.5659690811997307e-01  -1.0896716476431827e-01  -7.4356090141908415e-02  -5.0860337491788157e-02  -3.5037871556666683e-02  -2.3682289327320371e-02  -1.6474662802127397e-02  -1.6694238529447968e-02  -6.3974437020513546e-03  -5.3568164328037304e-01  -2.7611211375797617e-01  -1.8663934724310688e-01  -1.3352074116327811e-01  -9.3372637086578392e-02  -6.5369606765057930e-02  -4.5994311552245905e-02  -3.1863911195070108e-02  -2.2940296430896127e-02  -2.2286253525404434e-02  -6.5928682441839023e-03  -5.7026137477849947e-01  -2.9459133060409726e-01  -2.0417952841342504e-01  -1.4931885235613468e-01  -1.0587837200143943e-01  -7.4899372742854284e-02  -5.3060660380012503e-02  -3.7005748562200146e-02  -2.6851609430174346e-02  -2.5366789537299043e-02  -6.2486805933640154e-03  -5.7876597116164152e-01  -2.9068959076285794e-01  -1.9786592015896950e-01  -1.4369487662309677e-01  -1.0121944642604953e-01  -7.1265205911122953e-02  -5.0211027877088928e-02  -3.4838616624079471e-02  -2.5300696614946730e-02  -2.3833591880934864e-02  -4.6697663439201030e-03  -5.4882704201733767e-01  -2.5668504105767764e-01  -1.6028157262209181e-01  -1.1217216490381336e-01  -7.7113617563634482e-02  -5.3446667558784300e-02  -3.7188211375384139e-02  -2.5563457310730411e-02  -1.8705872586812999e-02  -1.8100637338883400e-02  -1.9574303261365141e-03  -3.9340047632055103e-01  -1.7546726339499907e-01  -1.0413721126321537e-01  -7.3038207001149158e-02  -5.0500075835558558e-02  -3.5295350180284769e-02  -2.4769780074146999e-02  -1.7296198373699147e-02  -1.2952197326759335e-02  -1.2373068868358260e-02  -3.8342493132451311e-04  -3.7523608104568652e-02  1.0891370131722115e-02  5.7710808784208843e-03  -7.4697127946744748e-04  -1.5842446842507915e-03  -1.5701313609810346e-03  -1.3057560373249798e-03  -9.9013056115962624e-04  -9.4858210345084490e-04  -1.3910946749725937e-03  3.5137322035246987e-03  -9.8572233474089940e-03  -1.0946672351400089e-02  -7.0678731663641929e-03  -5.2818960173692062e-03  -3.1062645001335887e-03  -1.9354168519351211e-03  -1.2450276673280267e-03  -8.2555761180932541e-04  -5.6672857499222686e-04  -2.6018035858060129e-04  -3.1058041471859228e-04  1.1950534694956157e-02  4.6887394567581495e-03  6.2790038680545727e-03  4.0072667274978395e-03  2.6685975400173598e-03  1.7155480754644029e-03  1.1373323915837416e-03  7.6321663078840192e-04  4.7892886851550826e-04  4.5019783603084405e-04  3.6874492870837404e-04  -4.0143578255556089e-01  -2.2071775523571907e-01  -1.3329587360079578e-01  -8.2206598839217104e-02  -5.1286412818822430e-02  -3.2738811710119366e-02  -2.1372275207960551e-02  -1.3572589132061720e-02  -8.4315908066767437e-03  -9.2525122013964144e-03  -6.0677231405610347e-03  -5.0777663913546112e-01  -3.1603401145091575e-01  -2.4147585602935950e-01  -1.8943487162788619e-01  -1.4401809183935685e-01  -1.0706694078632382e-01  -7.8512204745257302e-02  -5.7086178854521122e-02  -4.2578794318202967e-02  -3.5773045752401589e-02  -1.5818144378313130e-02  6.3994849106265383e-01  4.0544384033022429e-01  2.0382309155292211e-01  8.6895510377302490e-02  3.0464577718586485e-02  5.3332049701409244e-03  -4.6879040660800326e-03  -8.0403030671538055e-03  -1.0467878809059954e-02  -1.4662914206239542e-02  1.0417664210925690e-02  6.9080739336792307e-01  5.1346888174703631e-01  3.1664198771596580e-01  1.7563577711360565e-01  9.4418881192990411e-02  5.0008724251415455e-02  2.6283357930271926e-02  1.3518597719981647e-02  4.3847615594325212e-03  -4.3532379132288730e-03  2.6289270706107478e-02  6.6490571151109312e-01  5.4525795169106583e-01  3.7083931013771293e-01  2.2763119780122601e-01  1.3805833189479594e-01  8.4422356093797446e-02  5.2616804892667311e-02  3.3387024728692684e-02  1.9077365114957112e-02  6.4776449157851234e-03  3.9226979797615573e-02  6.7824357997754514e-01  5.7573789689518207e-01  4.0881540563188129e-01  2.6411316580051974e-01  1.7011998411118887e-01  1.1079383863055697e-01  7.3439053774347687e-02  4.9318736403636806e-02  3.0937654331544905e-02  1.5692111009994451e-02  4.6104453896409651e-02  7.3622762302760780e-01  6.0347424702530084e-01  4.2875725676619114e-01  2.8066394293164049e-01  1.8405920390997124e-01  1.2203366036341343e-01  8.2074610020299685e-02  5.5549978130196798e-02  3.5434780055510436e-02  1.9965553577568452e-02  4.4956791380093356e-02  8.5873827339973574e-01  6.0358628031903361e-01  3.9403162706535322e-01  2.4666678071555972e-01  1.5730055563719764e-01  1.0229253428874645e-01  6.7685926993936080e-02  4.5010051599319388e-02  2.8339366116709591e-02  1.6611902200499521e-02  3.5442320872930567e-02  1.0278876862656732e+00  6.0346903565383914e-01  3.6158728743563917e-01  2.2598683260777241e-01  1.4755341129826113e-01  9.8767889607215553e-02  6.7162461468716059e-02  4.6048048979842243e-02  3.1344398250260516e-02  2.1974420642016573e-02  2.7185867130269752e-02  9.6127445243631635e-02  -4.5938336064535526e-03  -1.9674932947268627e-02  -1.6059934390051111e-02  -1.1357546481336122e-02  -7.9692802516465183e-03  -5.6452080817637577e-03  -4.0340100548755583e-03  -2.8874641601503879e-03  -1.8803832881182879e-03  -2.6604013139570927e-03  2.3706433586670032e-03  -3.5726511043960588e-02  -1.6414059951839338e-02  -4.7930239571680293e-03  -1.8824098941757949e-03  -9.9776436266247703e-04  -5.9782552765689037e-04  -3.6944581434055363e-04  -2.2137500233404924e-04  1.7568634875077754e-04  -1.3028464066047773e-04  -4.5839763618335588e-01  -2.3460604720463857e-01  -1.5653219484960768e-01  -1.0888695268747807e-01  -7.4274012256351440e-02  -5.0807402406563840e-02  -3.5027023992080727e-02  -2.3723427254518349e-02  -1.6542806251851574e-02  -1.6718204353253632e-02  -6.4114139578185922e-03  6.3994610503911298e-01  4.0544013169301046e-01  2.0382601388539842e-01  8.6914216999351326e-02  3.0511719905214053e-02  5.4125311046961692e-03  -4.5611640360816710e-03  -7.8624208286607964e-03  -1.0255949388935740e-02  -1.4441871547065123e-02  1.0534090724194121e-02  8.0000000000000000e+00  5.3086806679747811e+00  3.7746022168413318e+00  2.7230601009170976e+00  1.9616982984230116e+00  1.4077977544764892e+00  1.0078218088273638e+00  7.2125554963181782e-01  5.1813339800098301e-01  3.8371040256106237e-01  3.3007602081985110e-01  8.0000000000000000e+00  6.0814328073361432e+00  4.6610951608715077e+00  3.5314109477258491e+00  2.6356499486561771e+00  1.9419747690880893e+00  1.4178359813511185e+00  1.0297883935461483e+00  7.4857552197587818e-01  5.6016762593208547e-01  4.9860975996202633e-01  8.0000000000000000e+00  6.4494459793424586e+00  5.1875751525263443e+00  4.0767999873721230e+00  3.1280954829254113e+00  2.3535149164590190e+00  1.7454798056003953e+00  1.2826259835281317e+00  9.3993567740501560e-01  7.0471674450510358e-01  6.2632381289617445e-01  8.0000000000000000e+00  6.5481494734579702e+00  5.3424840814944359e+00  4.2487492968520577e+00  3.2911630954611910e+00  2.4946021380851544e+00  1.8605805302479064e+00  1.3729494737451580e+00  1.0092141075054284e+00  7.5879577098556739e-01  6.7422064502553447e-01  8.0000000000000000e+00  6.4049118000184651e+00  5.1238480002910531e+00  4.0133018210339442e+00  3.0735570225070981e+00  2.3099517770806144e+00  1.7119474838061606e+00  1.2573691548866117e+00  9.2198402437034088e-01  6.9574223640865918e-01  6.1914933084318657e-01  8.0000000000000000e+00  5.9622178374965626e+00  4.5227489411947426e+00  3.4095256404731122e+00  2.5387297449612798e+00  1.8684466757421081e+00  1.3632880014004582e+00  9.9007967278209441e-01  7.2177392782780736e-01  5.4713542616916599e-01  4.8789700419587800e-01  8.0000000000000000e+00  5.0925168748983456e+00  3.5871938014733540e+00  2.5847338301913338e+00  1.8632190234675234e+00  1.3385802082436336e+00  9.5934203322836886e-01  6.8772543375543416e-01  4.9711464135326894e-01  3.7530449876269800e-01  3.2919056242898026e-01  1.2062755942476162e+00  6.0349829245629871e-01  2.9512739082009404e-01  1.7019576928779631e-01  1.0346204800280430e-01  6.5065855769332451e-02  4.2048871035623402e-02  2.7870582239289038e-02  1.9054330779969028e-02  1.3236861818803588e-02  -1.0260070737803757e-03  2.0130225029973287e-01  -8.8182919717925301e-02  -9.6212484293117781e-02  -4.7343913410262284e-02  -2.6770595896843011e-02  -1.6870865778892231e-02  -1.1039151371372884e-02  -7.3775446564732080e-03  -4.9371182172692875e-03  -3.0173239019377499e-03  -5.8729575989888228e-03  -5.3558202068382887e-01  -2.7598666805268512e-01  -1.8643679121191953e-01  -1.3324744179324607e-01  -9.3051795957917835e-02  -6.5049507443223520e-02  -4.5696171533021489e-02  -3.1626284080206811e-02  -2.2714327625169024e-02  -2.1996737876524532e-02  -6.4673615185077693e-03  6.9077021826431173e-01  5.1339794575653530e-01  3.1651927339255592e-01  1.7549306907631637e-01  9.4304329509052015e-02  4.9971947539231676e-02  2.6404771969951887e-02  1.3843062919545721e-02  4.8942896041657604e-03  -3.7779433923221316e-03  2.6518300914937617e-02  8.0000000000000000e+00  6.0814881090449582e+00  4.6610141868784156e+00  3.5311418663754743e+00  2.6351341548297365e+00  1.9411546682201477e+00  1.4166679295008655e+00  1.0282735688004396e+00  7.4679999553100906e-01  5.5830549857258049e-01  4.9696634539794005e-01  8.0000000000000000e+00  6.7492262032930013e+00  5.4788282891632640e+00  4.3177382853916901e+00  3.3200537061661191e+00  2.5027938954381015e+00  1.8589344142561546e+00  1.3671223480495083e+00  1.0019473261524015e+00  7.4844569473917444e-01  6.5443643032874832e-01  8.0000000000000000e+00  7.1547456503230356e+00  6.0930475314764365e+00  4.9864769710434986e+00  3.9490654495982938e+00  3.0457271420740333e+00  2.3019673800016478e+00  1.7150851559980758e+00  1.2675098835214234e+00  9.4448975939196322e-01  8.1780320687713637e-01  8.0000000000000000e+00  7.2671007946754775e+00  6.2813506521763829e+00  5.2079320337358679e+00  4.1687722539356145e+00  3.2425605100520625e+00  2.4668556517720903e+00  1.8469752128694930e+00  1.3695287068760491e+00  1.0228230776871849e+00  8.8483732499255652e-01  8.0000000000000000e+00  7.1168053364870367e+00  6.0308779138586930e+00  4.9200987803996066e+00  3.8891962592373446e+00  2.9961984565173649e+00  2.2629062359934098e+00  1.6851403973013761e+00  1.2457492223197979e+00  9.3500656793487980e-01  8.1315178847337533e-01  8.0000000000000000e+00  6.6627671921411409e+00  5.3626052913413407e+00  4.2040734162657216e+00  3.2225340293902400e+00  2.4245125509758645e+00  1.7984199993309404e+00  1.3217659484404070e+00  9.7062114696028834e-01  7.3426020215470944e-01  6.4422812430976784e-01  8.0000000000000000e+00  5.9874819530655063e+00  4.5375797758704168e+00  3.4136349278849161e+00  2.5362323684306807e+00  1.8626129596004688e+00  1.3563967900355585e+00  9.8366355356528590e-01  7.1703620563446913e-01  5.4343873296659784e-01  4.7342741815566369e-01  1.2094687181739290e+00  6.3465068175994421e-01  2.7444306449144906e-01  1.3630640294844010e-01  6.5385949417203174e-02  2.8944655062075282e-02  1.1361937378376326e-02  3.4100338511283334e-03  1.0150219712728524e-04  -3.2167676587592738e-03  -3.0906286802190704e-02  1.2375344427759030e-02  -3.6704681296829456e-01  -3.3482044488070711e-01  -1.8903583103512051e-01  -1.1344460159297977e-01  -7.3291570491097593e-02  -4.8443662560086975e-02  -3.2603912715289521e-02  -2.2208325425147023e-02  -1.5290572108147684e-02  -1.9000021920809886e-02  -5.7003419018465806e-01  -2.9433456664625990e-01  -2.0377820514205650e-01  -1.4876591514320958e-01  -1.0519272526195213e-01  -7.4118027887541404e-02  -5.2202494922079283e-02  -3.6121447650459090e-02  -2.5808006648805063e-02  -2.4244319300600396e-02  -5.7794062486613805e-03  6.6477906358162964e-01  5.4503512269956944e-01  3.7042894267691234e-01  2.2708735348148670e-01  1.3746013889170638e-01  8.3877278282367254e-02  5.2288688687485062e-02  3.3388170637284637e-02  1.9471501161127593e-02  6.9949551215358350e-03  3.9059419489816151e-02  8.0000000000000000e+00  6.4496606671802592e+00  5.1875894918906100e+00  4.0763183694022675e+00  3.1268163904622952e+00  2.3511175678643905e+00  1.7416470276118574e+00  1.2771619266400256e+00  9.3294521715961676e-01  6.9676311120358247e-01  6.1859363558434688e-01  8.0000000000000000e+00  7.1549821238075380e+00  6.0932988196685214e+00  4.9865733564447092e+00  3.9487057915579538e+00  3.0445591826432996e+00  2.2996134693658199e+00  1.7112588396414423e+00  1.2621078292951899e+00  9.3778053503463987e-01  8.1091628097843349e-01  8.0000000000000000e+00  7.5758077406849482e+00  6.7935607523780712e+00  5.8009183199719132e+00  4.7531033595888523e+00  3.7649463786118300e+00  2.9038273848650684e+00  2.1953595832241763e+00  1.6361683370599143e+00  1.2119158721824492e+00  1.0352565533580291e+00  8.0000000000000000e+00  7.6846398068686295e+00  7.0052708191825959e+00  6.0748765307569395e+00  5.0436181912373375e+00  4.0381238705560527e+00  3.1409291500322971e+00  2.3899135733846384e+00  1.7891358894669789e+00  1.3294250305568802e+00  1.1353119098591300e+00  8.0000000000000000e+00  7.5433783399423318e+00  6.7390023913013248e+00  5.7439814001260467e+00  4.7039398291257797e+00  3.7264217883475528e+00  2.8750627261467638e+00  2.1742435674787983e+00  1.6215267074531932e+00  1.2114591569122330e+00  1.0417480407635740e+00  8.0000000000000000e+00  7.0933776305964669e+00  6.0111411959185306e+00  4.9068793172075349e+00  3.8814409038914026e+00  2.9916807289395253e+00  2.2595435364696890e+00  1.6818170345302159e+00  1.2432170576675410e+00  9.3675442114309582e-01  8.1459927876784000e-01  8.0000000000000000e+00  6.4121828327409096e+00  5.1262154737518744e+00  4.0101099307478121e+00  3.0664003830616924e+00  2.3000598878875240e+00  1.7005504909137366e+00  1.2459519725344204e+00  9.1302264309908610e-01  6.9039388902453580e-01  5.9638798392881243e-01  1.1711523994082564e+00  6.3224379926498131e-01  2.9137456040139426e-01  1.5299604847985745e-01  7.3764124268902803e-02  3.0776104254050293e-02  9.9856991147561063e-03  9.5505962244963661e-04  -2.4301348071853676e-03  -6.3826129528257074e-03  -4.1722084134595515e-02  -5.3068658521490598e-02  -4.7011350587412637e-01  -4.3058914229307593e-01  -2.4906167956282357e-01  -1.5241797927787226e-01  -9.9526084835347930e-02  -6.5389643654745366e-02  -4.3540781059296742e-02  -2.9319414364239016e-02  -1.9854339428389618e-02  -2.3606854472885457e-02  -5.7841951417129334e-01  -2.9033266058940205e-01  -1.9732270761986798e-01  -1.4293802339205125e-01  -1.0025170215296121e-01  -7.0080572314706088e-02  -4.8764860286159180e-02  -3.2998393501607895e-02  -2.2707447904334273e-02  -2.1233892777451902e-02  -3.6418537436721612e-03  6.7795809747432123e-01  5.7528273583948664e-01  4.0799677424464592e-01  2.6300828258065939e-01  1.6881409829585670e-01  1.0940906047781672e-01  7.2161279996079006e-02  4.8320779329321384e-02  3.0291345609754744e-02  1.4900239291039461e-02  4.4533333948460894e-02  8.0000000000000000e+00  6.5486713773209360e+00  5.3428132544121025e+00  4.2482745161102793e+00  3.2892436180692131e+00  2.4904862639826679e+00  1.8534338094866689e+00  1.3620714527154467e+00  9.9450789822509900e-01  7.4108035852607324e-01  6.5638692283653322e-01  8.0000000000000000e+00  7.2676924024716785e+00  6.2821420549591522e+00  5.2084321483702407e+00  4.1682694719244235e+00  3.2401687244739876e+00  2.4615836596659988e+00  1.8380013721526731e+00  1.3564356667023396e+00  1.0058357698104545e+00  8.6669790670548652e-01  8.0000000000000000e+00  7.6849436135872651e+00  7.0058493565683371e+00  6.0754508647936056e+00  5.0436958212209237e+00  4.0370140926962232e+00  3.1378210079435838e+00  2.3840892864824457e+00  1.7800608645157112e+00  1.3170403386189982e+00  1.1216278582064545e+00  8.0000000000000000e+00  7.7865243673705917e+00  7.2202634255656655e+00  6.3679989665622694e+00  5.3655068833206805e+00  4.3475753832229751e+00  3.4122779743294567e+00  2.6119562134807293e+00  1.9605720252838965e+00  1.4562221543241527e+00  1.2401625149762385e+00  8.0000000000000000e+00  7.6514176480899518e+00  6.9552014146069778e+00  6.0296684009509001e+00  5.0112677676012911e+00  4.0175767524476607e+00  3.1275693209127367e+00  2.3791347801783029e+00  1.7789782331924631e+00  1.3280576028118987e+00  1.1383566265994551e+00  8.0000000000000000e+00  7.2151992954134423e+00  6.2230103674021144e+00  5.1616465649897183e+00  4.1372623752384605e+00  3.2217597182971596e+00  2.4512826804180898e+00  1.8326747159489138e+00  1.3565950884046172e+00  1.0198756855325892e+00  8.8304764803426750e-01  8.0000000000000000e+00  6.5349233510584011e+00  5.3182601673354846e+00  4.2229734816719713e+00  3.2662729879943653e+00  2.4701868537188676e+00  1.8361413814719507e+00  1.3488995984124397e+00  9.8834336119180932e-01  7.4478935691164672e-01  6.3923517856947865e-01  1.1652658489385921e+00  6.3146850511778263e-01  2.7965895342452818e-01  1.2948468609377695e-01  4.5047803162978947e-02  2.8417852477553673e-03  -1.4265508863981436e-02  -1.8761005459903585e-02  -1.7886704019960082e-02  -1.9001891087454485e-02  -5.8675437983370389e-02  -4.9383531682252381e-02  -4.7362650327212535e-01  -4.5196962076292380e-01  -2.7848768021065168e-01  -1.8052624781244730e-01  -1.2142280634086197e-01  -8.0832083016473169e-02  -5.4249441920575514e-02  -3.6736181067607780e-02  -2.4928367834838476e-02  -2.7975477167790076e-02  -5.4845558989079835e-01  -2.5633247111378599e-01  -1.5975681637118408e-01  -1.1143576239640131e-01  -7.6155695207517693e-02  -5.2222607349760440e-02  -3.5581503995197571e-02  -2.3303532354859314e-02  -1.5403953571974089e-02  -1.4940493782658347e-02  -1.0063763635371019e-03  7.3579559677013351e-01  6.0283623756516558e-01  4.2762138588729537e-01  2.7913462646022597e-01  1.8220923334811337e-01  1.1994045603821696e-01  7.9818823362003855e-02  5.3106765779484179e-02  3.2262834785967684e-02  1.5162514484343201e-02  4.0372106576135200e-02  8.0000000000000000e+00  6.4058407846931633e+00  5.1245189655809256e+00  4.0128072679521569e+00  3.0710060281875489e+00  2.3042629133951711e+00  1.7018471553561336e+00  1.2416089657434968e+00  8.9995176003779276e-01  6.6907615900635853e-01  5.9197036904431011e-01  8.0000000000000000e+00  7.1178519756687342e+00  6.0322190243340126e+00  4.9208893516564345e+00  3.8883932358544344e+00  2.9925057373452910e+00  2.2548436955838076e+00  1.6714088575222061e+00  1.2258190796099571e+00  9.0986827422144201e-01  7.8619918799747146e-01  8.0000000000000000e+00  7.5440666220655395e+00  6.7401755593378381e+00  5.7450344147568915e+00  4.7039470744503564e+00  3.7240717456937982e+00  2.8687036302209115e+00  2.1622186819319791e+00  1.6026773825223184e+00  1.1859204857700558e+00  1.0131790033637507e+00  8.0000000000000000e+00  7.6517252884716420e+00  6.9557699122895231e+00  6.0302239247948624e+00  5.0113302071362824e+00  4.0163718333470122e+00  3.1239697228962995e+00  2.3717836716340392e+00  1.7667473899763675e+00  1.3109208453504011e+00  1.1185049780629435e+00  8.0000000000000000e+00  7.5152869424114392e+00  6.7056654082342311e+00  5.7226096896281442e+00  4.6965218724748530e+00  3.7274215608529975e+00  2.8771882957653485e+00  2.1716291822428806e+00  1.6120613600417222e+00  1.2007922540073039e+00  1.0292164940985227e+00  8.0000000000000000e+00  7.0881290738179334e+00  6.0132890595477289e+00  4.9197751577866313e+00  3.8998203447357058e+00  3.0092605261766070e+00  2.2715813487301517e+00  1.6856941154343981e+00  1.2388198128319590e+00  9.2716481238123016e-01  8.0034444519384751e-01  8.0000000000000000e+00  6.4283411417998160e+00  5.1495663126183508e+00  4.0349420095701305e+00  3.0863077881517369e+00  2.31