<?xml version="1.0"?>
<VTKFile type="UnstructuredGrid"  version="0.1"  >
<UnstructuredGrid>
<Piece  NumberOfPoints="539" NumberOfCells="2160">
<Points>
<DataArray  type="Float64"  NumberOfComponents="3"  format="ascii">0 0.2 0.2  0.1 0.2 0.2  0.1 0.3 0.2  0.1 0.3 0.3  0.1 0.2 0.3  0 0.2 0.3  0 0.3 0.2  0 0.3 0.3  0.2 0.2 0.2  0.2 0.3 0.2  0.2 0.3 0.3  0.2 0.2 0.3  0.3 0.2 0.2  0.3 0.3 0.2  0.3 0.3 0.3  0.3 0.2 0.3  0.4 0.2 0.2  0.4 0.3 0.2  0.4 0.3 0.3  0.4 0.2 0.3  0.5 0.2 0.2  0.5 0.3 0.2  0.5 0.3 0.3  0.5 0.2 0.3  0.6 0.2 0.2  0.6 0.3 0.2  0.6 0.3 0.3  0.6 0.2 0.3  0.7 0.2 0.2  0.7 0.3 0.2  0.7 0.3 0.3  0.7 0.2 0.3  0.8 0.2 0.2  0.8 0.3 0.2  0.8 0.3 0.3  0.8 0.2 0.3  0.9 0.2 0.2  0.9 0.3 0.2  0.9 0.3 0.3  0.9 0.2 0.3  1 0.2 0.2  1 0.3 0.2  1 0.3 0.3  1 0.2 0.3  0.1 0.4 0.2  0.1 0.4 0.3  0 0.4 0.2  0 0.4 0.3  0.2 0.4 0.2  0.2 0.4 0.3  0.3 0.4 0.2  0.3 0.4 0.3  0.4 0.4 0.2  0.4 0.4 0.3  0.5 0.4 0.2  0.5 0.4 0.3  0.6 0.4 0.2  0.6 0.4 0.3  0.7 0.4 0.2  0.7 0.4 0.3  0.8 0.4 0.2  0.8 0.4 0.3  0.9 0.4 0.2  0.9 0.4 0.3  1 0.4 0.2  1 0.4 0.3  0.1 0.5 0.2  0.1 0.5 0.3  0 0.5 0.2  0 0.5 0.3  0.2 0.5 0.2  0.2 0.5 0.3  0.3 0.5 0.2  0.3 0.5 0.3  0.4 0.5 0.2  0.4 0.5 0.3  0.5 0.5 0.2  0.5 0.5 0.3  0.6 0.5 0.2  0.6 0.5 0.3  0.7 0.5 0.2  0.7 0.5 0.3  0.8 0.5 0.2  0.8 0.5 0.3  0.9 0.5 0.2  0.9 0.5 0.3  1 0.5 0.2  1 0.5 0.3  0.1 0.6 0.2  0.1 0.6 0.3  0 0.6 0.2  0 0.6 0.3  0.2 0.6 0.2  0.2 0.6 0.3  0.3 0.6 0.2  0.3 0.6 0.3  0.4 0.6 0.2  0.4 0.6 0.3  0.5 0.6 0.2  0.5 0.6 0.3  0.6 0.6 0.2  0.6 0.6 0.3  0.7 0.6 0.2  0.7 0.6 0.3  0.8 0.6 0.2  0.8 0.6 0.3  0.9 0.6 0.2  0.9 0.6 0.3  1 0.6 0.2  1 0.6 0.3  0.1 0.7 0.2  0.1 0.7 0.3  0 0.7 0.2  0 0.7 0.3  0.2 0.7 0.2  0.2 0.7 0.3  0.3 0.7 0.2  0.3 0.7 0.3  0.4 0.7 0.2  0.4 0.7 0.3  0.5 0.7 0.2  0.5 0.7 0.3  0.6 0.7 0.2  0.6 0.7 0.3  0.7 0.7 0.2  0.7 0.7 0.3  0.8 0.7 0.2  0.8 0.7 0.3  0.9 0.7 0.2  0.9 0.7 0.3  1 0.7 0.2  1 0.7 0.3  0.1 0.8 0.2  0.1 0.8 0.3  0 0.8 0.2  0 0.8 0.3  0.2 0.8 0.2  0.2 0.8 0.3  0.3 0.8 0.2  0.3 0.8 0.3  0.4 0.8 0.2  0.4 0.8 0.3  0.5 0.8 0.2  0.5 0.8 0.3  0.6 0.8 0.2  0.6 0.8 0.3  0.7 0.8 0.2  0.7 0.8 0.3  0.8 0.8 0.2  0.8 0.8 0.3  0.9 0.8 0.2  0.9 0.8 0.3  1 0.8 0.2  1 0.8 0.3  0.1 0.3 0.4  0.1 0.2 0.4  0 0.2 0.4  0 0.3 0.4  0.2 0.3 0.4  0.2 0.2 0.4  0.3 0.3 0.4  0.3 0.2 0.4  0.4 0.3 0.4  0.4 0.2 0.4  0.5 0.3 0.4  0.5 0.2 0.4  0.6 0.3 0.4  0.6 0.2 0.4  0.7 0.3 0.4  0.7 0.2 0.4  0.8 0.3 0.4  0.8 0.2 0.4  0.9 0.3 0.4  0.9 0.2 0.4  1 0.3 0.4  1 0.2 0.4  0.1 0.4 0.4  0 0.4 0.4  0.2 0.4 0.4  0.3 0.4 0.4  0.4 0.4 0.4  0.5 0.4 0.4  0.6 0.4 0.4  0.7 0.4 0.4  0.8 0.4 0.4  0.9 0.4 0.4  1 0.4 0.4  0.1 0.5 0.4  0 0.5 0.4  0.2 0.5 0.4  0.3 0.5 0.4  0.4 0.5 0.4  0.5 0.5 0.4  0.6 0.5 0.4  0.7 0.5 0.4  0.8 0.5 0.4  0.9 0.5 0.4  1 0.5 0.4  0.1 0.6 0.4  0 0.6 0.4  0.2 0.6 0.4  0.3 0.6 0.4  0.4 0.6 0.4  0.5 0.6 0.4  0.6 0.6 0.4  0.7 0.6 0.4  0.8 0.6 0.4  0.9 0.6 0.4  1 0.6 0.4  0.1 0.7 0.4  0 0.7 0.4  0.2 0.7 0.4  0.3 0.7 0.4  0.4 0.7 0.4  0.5 0.7 0.4  0.6 0.7 0.4  0.7 0.7 0.4  0.8 0.7 0.4  0.9 0.7 0.4  1 0.7 0.4  0.1 0.8 0.4  0 0.8 0.4  0.2 0.8 0.4  0.3 0.8 0.4  0.4 0.8 0.4  0.5 0.8 0.4  0.6 0.8 0.4  0.7 0.8 0.4  0.8 0.8 0.4  0.9 0.8 0.4  1 0.8 0.4  0.1 0.3 0.5  0.1 0.2 0.5  0 0.2 0.5  0 0.3 0.5  0.2 0.3 0.5  0.2 0.2 0.5  0.3 0.3 0.5  0.3 0.2 0.5  0.4 0.3 0.5  0.4 0.2 0.5  0.5 0.3 0.5  0.5 0.2 0.5  0.6 0.3 0.5  0.6 0.2 0.5  0.7 0.3 0.5  0.7 0.2 0.5  0.8 0.3 0.5  0.8 0.2 0.5  0.9 0.3 0.5  0.9 0.2 0.5  1 0.3 0.5  1 0.2 0.5  0.1 0.4 0.5  0 0.4 0.5  0.2 0.4 0.5  0.3 0.4 0.5  0.4 0.4 0.5  0.5 0.4 0.5  0.6 0.4 0.5  0.7 0.4 0.5  0.8 0.4 0.5  0.9 0.4 0.5  1 0.4 0.5  0.1 0.5 0.5  0 0.5 0.5  0.2 0.5 0.5  0.3 0.5 0.5  0.4 0.5 0.5  0.5 0.5 0.5  0.6 0.5 0.5  0.7 0.5 0.5  0.8 0.5 0.5  0.9 0.5 0.5  1 0.5 0.5  0.1 0.6 0.5  0 0.6 0.5  0.2 0.6 0.5  0.3 0.6 0.5  0.4 0.6 0.5  0.5 0.6 0.5  0.6 0.6 0.5  0.7 0.6 0.5  0.8 0.6 0.5  0.9 0.6 0.5  1 0.6 0.5  0.1 0.7 0.5  0 0.7 0.5  0.2 0.7 0.5  0.3 0.7 0.5  0.4 0.7 0.5  0.5 0.7 0.5  0.6 0.7 0.5  0.7 0.7 0.5  0.8 0.7 0.5  0.9 0.7 0.5  1 0.7 0.5  0.1 0.8 0.5  0 0.8 0.5  0.2 0.8 0.5  0.3 0.8 0.5  0.4 0.8 0.5  0.5 0.8 0.5  0.6 0.8 0.5  0.7 0.8 0.5  0.8 0.8 0.5  0.9 0.8 0.5  1 0.8 0.5  0.1 0.3 0.6  0.1 0.2 0.6  0 0.2 0.6  0 0.3 0.6  0.2 0.3 0.6  0.2 0.2 0.6  0.3 0.3 0.6  0.3 0.2 0.6  0.4 0.3 0.6  0.4 0.2 0.6  0.5 0.3 0.6  0.5 0.2 0.6  0.6 0.3 0.6  0.6 0.2 0.6  0.7 0.3 0.6  0.7 0.2 0.6  0.8 0.3 0.6  0.8 0.2 0.6  0.9 0.3 0.6  0.9 0.2 0.6  1 0.3 0.6  1 0.2 0.6  0.1 0.4 0.6  0 0.4 0.6  0.2 0.4 0.6  0.3 0.4 0.6  0.4 0.4 0.6  0.5 0.4 0.6  0.6 0.4 0.6  0.7 0.4 0.6  0.8 0.4 0.6  0.9 0.4 0.6  1 0.4 0.6  0.1 0.5 0.6  0 0.5 0.6  0.2 0.5 0.6  0.3 0.5 0.6  0.4 0.5 0.6  0.5 0.5 0.6  0.6 0.5 0.6  0.7 0.5 0.6  0.8 0.5 0.6  0.9 0.5 0.6  1 0.5 0.6  0.1 0.6 0.6  0 0.6 0.6  0.2 0.6 0.6  0.3 0.6 0.6  0.4 0.6 0.6  0.5 0.6 0.6  0.6 0.6 0.6  0.7 0.6 0.6  0.8 0.6 0.6  0.9 0.6 0.6  1 0.6 0.6  0.1 0.7 0.6  0 0.7 0.6  0.2 0.7 0.6  0.3 0.7 0.6  0.4 0.7 0.6  0.5 0.7 0.6  0.6 0.7 0.6  0.7 0.7 0.6  0.8 0.7 0.6  0.9 0.7 0.6  1 0.7 0.6  0.1 0.8 0.6  0 0.8 0.6  0.2 0.8 0.6  0.3 0.8 0.6  0.4 0.8 0.6  0.5 0.8 0.6  0.6 0.8 0.6  0.7 0.8 0.6  0.8 0.8 0.6  0.9 0.8 0.6  1 0.8 0.6  0.1 0.3 0.7  0.1 0.2 0.7  0 0.2 0.7  0 0.3 0.7  0.2 0.3 0.7  0.2 0.2 0.7  0.3 0.3 0.7  0.3 0.2 0.7  0.4 0.3 0.7  0.4 0.2 0.7  0.5 0.3 0.7  0.5 0.2 0.7  0.6 0.3 0.7  0.6 0.2 0.7  0.7 0.3 0.7  0.7 0.2 0.7  0.8 0.3 0.7  0.8 0.2 0.7  0.9 0.3 0.7  0.9 0.2 0.7  1 0.3 0.7  1 0.2 0.7  0.1 0.4 0.7  0 0.4 0.7  0.2 0.4 0.7  0.3 0.4 0.7  0.4 0.4 0.7  0.5 0.4 0.7  0.6 0.4 0.7  0.7 0.4 0.7  0.8 0.4 0.7  0.9 0.4 0.7  1 0.4 0.7  0.1 0.5 0.7  0 0.5 0.7  0.2 0.5 0.7  0.3 0.5 0.7  0.4 0.5 0.7  0.5 0.5 0.7  0.6 0.5 0.7  0.7 0.5 0.7  0.8 0.5 0.7  0.9 0.5 0.7  1 0.5 0.7  0.1 0.6 0.7  0 0.6 0.7  0.2 0.6 0.7  0.3 0.6 0.7  0.4 0.6 0.7  0.5 0.6 0.7  0.6 0.6 0.7  0.7 0.6 0.7  0.8 0.6 0.7  0.9 0.6 0.7  1 0.6 0.7  0.1 0.7 0.7  0 0.7 0.7  0.2 0.7 0.7  0.3 0.7 0.7  0.4 0.7 0.7  0.5 0.7 0.7  0.6 0.7 0.7  0.7 0.7 0.7  0.8 0.7 0.7  0.9 0.7 0.7  1 0.7 0.7  0.1 0.8 0.7  0 0.8 0.7  0.2 0.8 0.7  0.3 0.8 0.7  0.4 0.8 0.7  0.5 0.8 0.7  0.6 0.8 0.7  0.7 0.8 0.7  0.8 0.8 0.7  0.9 0.8 0.7  1 0.8 0.7  0.1 0.3 0.8  0.1 0.2 0.8  0 0.2 0.8  0 0.3 0.8  0.2 0.3 0.8  0.2 0.2 0.8  0.3 0.3 0.8  0.3 0.2 0.8  0.4 0.3 0.8  0.4 0.2 0.8  0.5 0.3 0.8  0.5 0.2 0.8  0.6 0.3 0.8  0.6 0.2 0.8  0.7 0.3 0.8  0.7 0.2 0.8  0.8 0.3 0.8  0.8 0.2 0.8  0.9 0.3 0.8  0.9 0.2 0.8  1 0.3 0.8  1 0.2 0.8  0.1 0.4 0.8  0 0.4 0.8  0.2 0.4 0.8  0.3 0.4 0.8  0.4 0.4 0.8  0.5 0.4 0.8  0.6 0.4 0.8  0.7 0.4 0.8  0.8 0.4 0.8  0.9 0.4 0.8  1 0.4 0.8  0.1 0.5 0.8  0 0.5 0.8  0.2 0.5 0.8  0.3 0.5 0.8  0.4 0.5 0.8  0.5 0.5 0.8  0.6 0.5 0.8  0.7 0.5 0.8  0.8 0.5 0.8  0.9 0.5 0.8  1 0.5 0.8  0.1 0.6 0.8  0 0.6 0.8  0.2 0.6 0.8  0.3 0.6 0.8  0.4 0.6 0.8  0.5 0.6 0.8  0.6 0.6 0.8  0.7 0.6 0.8  0.8 0.6 0.8  0.9 0.6 0.8  1 0.6 0.8  0.1 0.7 0.8  0 0.7 0.8  0.2 0.7 0.8  0.3 0.7 0.8  0.4 0.7 0.8  0.5 0.7 0.8  0.6 0.7 0.8  0.7 0.7 0.8  0.8 0.7 0.8  0.9 0.7 0.8  1 0.7 0.8  0.1 0.8 0.8  0 0.8 0.8  0.2 0.8 0.8  0.3 0.8 0.8  0.4 0.8 0.8  0.5 0.8 0.8  0.6 0.8 0.8  0.7 0.8 0.8  0.8 0.8 0.8  0.9 0.8 0.8  1 0.8 0.8  </DataArray>
</Points>
<Cells>
[...]
<PointData  Vectors="f_23"> 
<DataArray  type="Float64"  Name="f_23"  NumberOfComponents="3" format="ascii">-5.9090392683174237e-04 -1.8141393878334989e-04 -8.8302056446732619e-06  -5.0879990125581812e-04 -2.6849260813834513e-04 -1.1895897928289881e-05  -5.8653225483187778e-04 -1.9115521602887625e-04 -1.9921361079334040e-05  7.8136228721870399e-02 -2.2773010440865717e-04 -4.8058513550417646e-04  -5.1609126045176746e-04 -2.5804273362901175e-04 -1.7606707080894145e-05  -5.9001029202858130e-04 -1.7632574169972712e-04 -1.4597135254845771e-05  -6.6165926929924175e-04 -1.1888987265675841e-04 -1.7373722561896744e-05  7.8804410336986722e-02 -1.1736918394789858e-03 -1.3417165870021341e-03  -4.0289055805946988e-04 -4.0671562203475193e-04 3.7865862865112597e-06  -4.7695215811577394e-04 -3.0969029823758556e-04 -1.9355289962980435e-05  7.8861822047169766e-02 -1.4058014122260195e-05 -2.4406401789966588e-04  -4.0708350907271669e-04 -4.2028896969925790e-04 -5.6669335356665812e-06  -2.7399302830782537e-04 -5.1755396648144731e-04 3.9804099994506701e-05  -3.4429968799395185e-04 -4.0481449735596130e-04 -5.1396857904180976e-06  7.8903919833276201e-02 1.3835009749048484e-04 -3.3225383754124997e-04  -2.6806060609110550e-04 -5.7560469033722365e-04 3.7188413695042900e-05  -1.3179362691664946e-04 -5.7821244652347947e-04 9.0724818397417632e-05  -1.8541118020864235e-04 -4.6166890779197108e-04 2.2006761669289959e-05  7.9100330035363889e-02 3.1330754370311435e-04 -5.1218859632112714e-04  -1.2034171589549758e-04 -7.0023539366856737e-04 1.1681805409014995e-04  1.6658994624397304e-05 -5.5912180617445281e-04 1.3246409862495794e-04  -7.3891981575500483e-06 -4.6057833106794916e-04 5.0619258515899406e-05  7.9473110694564406e-02 5.3217856991977295e-04 -7.5453222192073269e-04  1.1609582037391343e-05 -7.5072707784324473e-04 2.1224502040051273e-04  1.8651150583309174e-04 -4.4558590130731369e-04 1.3261207576873061e-04  1.9157042476421052e-04 -3.8731662926413626e-04 6.1864600721593769e-05  8.0003232571347491e-02 7.2893519841998801e-04 -9.9144745014155913e-04  1.3126738171601840e-04 -6.7495368170547132e-04 2.6757946154546363e-04  4.0914803567729686e-04 -2.7001117887328485e-04 8.1351013220061196e-05  4.2030239997934321e-04 -2.5517748881976856e-04 4.3525991482540601e-05  8.0440414644161795e-02 8.4271328406061599e-04 -1.0456357689303385e-03  2.9523230504379310e-04 -4.7025668698849680e-04 2.2054129095368886e-04  7.0043378607237286e-04 -1.1323840078593298e-04 2.7941777139873903e-05  6.8676794588459354e-04 -1.1781582290632966e-04 1.2419595831509671e-05  7.9936359969094137e-02 8.2208548420976708e-04 -5.0857699457072911e-04  5.6442113937769391e-04 -2.3561177177550669e-04 8.9681471671239376e-05  9.6853004956313831e-04 -3.9257160527762612e-05 2.6893579078511801e-05  9.5564699642464526e-04 -4.0732531927287254e-05 1.7510700033387472e-05  7.7475224260807982e-02 5.5404947410852504e-04 4.6079479929110899e-04  8.7452653998819840e-04 -8.2603078369985165e-05 6.4339242873325708e-05  1.1071011056123263e-03 -1.7181598244461508e-05 3.8936274068117540e-05  1.1150370421200019e-03 -1.5389050997020566e-05 1.0642153290420155e-05  7.5025675064863670e-02 -1.2042584302188632e-04 -1.7507130907494222e-03  1.0842948831123731e-03 -5.2205517466837757e-05 5.2386176839249566e-05  -6.9314336764789803e-04 -1.1864878838722719e-04 -3.0026702279678337e-05  1.1317837252045002e-01 3.0061633001942755e-04 -3.9109182674733161e-04  -7.6335923609671132e-04 -7.3053791897146321e-05 -2.2361563568154232e-05  1.1423271735735610e-01 -1.1496130556087085e-03 -1.3562631884265744e-03  -5.6967968456329593e-04 -2.0107530298022470e-04 -4.2673728661835185e-05  1.1379699176257201e-01 2.9987187819138219e-04 -1.8767317240453717e-04  -4.0965345372171938e-04 -2.7065440992819951e-04 -4.9141997502668568e-05  1.1399602099220568e-01 3.3911676688960611e-04 -1.7615183718899401e-04  -2.1121518512671781e-04 -3.1188413482102209e-04 -4.7503507389036760e-05  1.1414363295321119e-01 4.5346801888904837e-04 -1.8325929533358185e-04  1.9076381947505245e-05 -3.1355531541419073e-04 -3.9495433464497301e-05  1.1434613981902657e-01 5.8450253631330148e-04 -1.6807072274101361e-04  2.6968483775193007e-04 -2.6839804017521438e-04 -2.9029984696297418e-05  1.1455864544020775e-01 6.3025847482589483e-04 -8.0013377274365172e-05  5.2503813434787974e-04 -1.8273760449105610e-04 -2.2095835743795811e-05  1.1460490269040398e-01 4.9267821751685910e-04 1.4502079831868245e-04  7.7865011611389235e-04 -8.7691190773435933e-05 -2.0877946455697503e-05  1.1412478818046297e-01 1.6719348427654163e-04 5.2547110169799780e-04  1.0123156671561953e-03 -3.4064567942905709e-05 -1.3855262803362286e-06  1.1267902181439279e-01 -2.2840708702527880e-04 5.5998840263869916e-04  1.1476349904792709e-03 -1.5463795280057779e-05 -9.5256956230047866e-06  1.1059637276023274e-01 -4.1529503480164408e-05 -2.3269580355729262e-03  -7.6413803659977099e-04 -7.5261322547766447e-05 -3.3609807362642015e-05  1.2464717489369796e-01 1.7315653925147693e-04 -3.0745683822602630e-04  -8.2792376925232226e-04 -4.4412833382369286e-05 -2.3410372500121807e-05  1.2557004743058420e-01 -7.8442582986836744e-04 -1.2695187416611573e-03  -6.3661383504600073e-04 -1.3162868201595278e-04 -5.1146677438685309e-05  1.2517582245735773e-01 2.8998289318729809e-04 -1.0816320271893279e-04  -4.5652230025376689e-04 -1.8154418462333207e-04 -6.6111423542518851e-05  1.2539849410398596e-01 2.7767310349594888e-04 -7.0104558267810728e-05  -2.2852110143934011e-04 -2.1191278816965817e-04 -7.5111317298708378e-05  1.2559263717854416e-01 2.9706030112070626e-04 -3.0971601408264544e-05  3.7945897914656443e-05 -2.1481235478427809e-04 -7.5788909666559025e-05  1.2577739151934689e-01 3.1875388676055367e-04 4.1360213998032196e-05  3.2362092295419690e-04 -1.8667622326438369e-04 -6.5814950218062604e-05  1.2586160476961530e-01 2.7546398435040082e-04 1.7912667447708659e-04  5.9941118884901889e-04 -1.3068499589194429e-04 -4.8136713736038704e-05  1.2568155075119455e-01 1.0701738512469764e-04 4.0715238409083149e-04  8.4561155773308684e-04 -6.2280056433115945e-05 -3.3633385137165339e-05  1.2510312736576651e-01 -1.6441877502958667e-04 6.3984008875793831e-04  1.0509988904634816e-03 -2.3838979215478015e-05 -1.0491608016767430e-05  1.2410785295335884e-01 -4.0447584631029957e-04 3.0850303257807312e-04  1.1665993486855530e-03 -1.2120203217577470e-05 -1.3877447342653513e-05  1.2231074918463929e-01 -5.0263362632857419e-06 -2.2244520830902569e-03  -8.1241711956964765e-04 -4.6570526115845872e-05 -3.2544508469283393e-05  1.1334899552656384e-01 1.2833836717432537e-04 -2.6008647057963367e-04  -8.6880016366369943e-04 -2.8143551931750183e-05 -2.2839241975462192e-05  1.1413915197391904e-01 -4.6074708404210179e-04 -1.1697077884247522e-03  -6.8680349137485426e-04 -8.7549224561385923e-05 -4.8713623156088091e-05  1.1381585429028278e-01 1.8328490359628046e-04 -7.2704086983727255e-05  -4.9613697272480109e-04 -1.2750076118133957e-04 -6.2932116509172725e-05  1.1401072360629491e-01 1.3479679945646499e-04 -2.6341169296803214e-05  -2.4870047136422952e-04 -1.5595607646784566e-04 -7.2202052942512513e-05  1.1419535532123780e-01 8.4206845574011892e-05 2.0597680286458038e-05  4.2376547622026192e-05 -1.6572790322390613e-04 -7.3227475884206236e-05  1.1435525811650434e-01 2.7212901737154743e-05 9.7102791191993763e-05  3.5365514806617832e-04 -1.5377483324564275e-04 -6.2468107486674969e-05  1.1437643451824715e-01 -5.6832217577410713e-05 2.2412608861044326e-04  6.4972407248126769e-04 -1.2005494467577279e-04 -4.2654001863974160e-05  1.1411815609220632e-01 -1.6928444496982226e-04 4.0742811554485790e-04  8.9998922331413652e-04 -6.6941673225997622e-05 -2.7752981444917535e-05  1.1354679918420618e-01 -2.5304284098764870e-04 5.2613105533770880e-04  1.0836394536595734e-03 -2.6096779733323236e-05 -9.7733529889136127e-06  1.1279996358947428e-01 -1.9597561734597114e-04 9.7508017881205023e-05  1.1827450558905580e-03 -1.9808099746086205e-05 -1.0741452124291864e-05  1.1152045517171129e-01 1.4972860961428672e-04 -1.9367632736981789e-03  -8.4666869571546621e-04 -2.7751028538261041e-05 -3.1712073824468027e-05  7.7433594652368293e-02 8.0586869359769805e-05 -2.4298637845443497e-04  -8.9361457801709701e-04 -1.5200700252831930e-05 -2.2975610472033103e-05  7.7363874869300395e-02 -4.2104948764736558e-04 -1.0031641035434234e-03  -7.3350282133079528e-04 -5.6750689037221564e-05 -4.2411424417663094e-05  7.7825536296741021e-02 3.6285057725533076e-05 -7.1196800680660663e-05  -5.4470539409923473e-04 -9.3835246459624639e-05 -5.1142683564768970e-05  7.7934857257665871e-02 -8.1418579343503752e-05 -2.8345753549924049e-05  -2.8827472445440178e-04 -1.2858163604917826e-04 -5.6458221878374161e-05  7.8022454747954786e-02 -1.9858083051873981e-04 7.8721110275164926e-06  1.8604873947947472e-05 -1.5034280549912980e-04 -5.5772401367338563e-05  7.8095126529364151e-02 -3.2388094157938593e-04 7.9386246610273261e-05  3.4882827622429802e-04 -1.5403194540029925e-04 -4.4777176050624499e-05  7.8066538602061281e-02 -4.4648312381901988e-04 2.0125550393707630e-04  6.6737950966062789e-04 -1.3798122715762463e-04 -2.5468028280836651e-05  7.7847679736164174e-02 -5.3087331932799391e-04 3.5869682023697392e-04  9.4166305585219269e-04 -1.0098405920373886e-04 -1.2595391824900639e-05  7.7422048734126683e-02 -5.1505487475526283e-04 4.2987395442515625e-04  1.1209277045628634e-03 -5.2421454771167588e-05 -3.5561169792161721e-06  7.6702688318030690e-02 -3.8544955047244270e-04 8.0412890272024804e-05  1.2057726254999020e-03 -3.5724142927613042e-05 -4.9506375031965640e-06  7.6295206515515648e-02 2.0611234613318645e-04 -1.5635831929296845e-03  -8.8141485432255006e-04 -2.5618873959562585e-05 -1.8171757636930094e-05  -8.9737705292822374e-04 -1.4557416904537692e-05 -2.1411873840908340e-05  -9.0482956473426023e-04 -1.2804140891012396e-05 -1.6964644063479079e-05  -9.1108032647822345e-04 -1.7912261460220286e-05 -1.7340888266255421e-05  -7.9436545002656387e-04 -4.8678540043006296e-05 -3.3052708423176649e-05  -8.2811171968973486e-04 -3.6301952422399001e-05 -3.6968497421824382e-05  -6.3484296936372117e-04 -7.9618288491802898e-05 -4.4538425871219860e-05  -6.9623692830629114e-04 -6.8555138796134020e-05 -4.8559344491420240e-05  -4.0475500784375692e-04 -1.1353852822995264e-04 -5.0187919458403545e-05  -4.9170231176340145e-04 -1.0640515337844887e-04 -5.6781423190575245e-05  -1.1595068931025838e-04 -1.3852402307968831e-04 -5.1703278377997746e-05  -2.2412703018228835e-04 -1.3636292819123040e-04 -6.1270443736435577e-05  2.1079906977073426e-04 -1.4764402999868141e-04 -4.6560775359570610e-05  8.8118433663883435e-05 -1.5086081991524605e-04 -5.7630272535497922e-05  5.4129862314059452e-04 -1.3703081593533485e-04 -3.2337450194012995e-05  4.1515237824980123e-04 -1.4636749942772040e-04 -4.3175441764892590e-05  8.3882273581224894e-04 -1.0352011237688880e-04 -1.5946628501071722e-05  7.1924335774410111e-04 -1.1984621401453707e-04 -2.5147065597790873e-05  1.0921021503368490e-03 -5.9227513198101217e-05 -4.1613466956977823e-06  9.8433608791236569e-04 -7.8565918766590440e-05 -1.2527812149275378e-05  1.2081420578791177e-03 -4.1540075840669714e-05 8.6119070980462054e-06  1.1135864559812525e-03 -4.8289044908628511e-05 -3.0625197077433018e-06  1.1300880489897898e-01 -1.9384305215845737e-04 -1.3029133240934486e-04  -5.2905660175591818e-04 -2.5815399529901530e-04 -3.9495224767833252e-05  -6.1066316325045808e-04 -1.6944374959688063e-04 -3.2658500339827036e-05  1.1386511669168406e-01 -1.1515077367766522e-03 -1.0796206273777545e-03  1.1365644106415729e-01 -2.7648292338466220e-05 -9.4793870235591716e-05  -3.9525774534877845e-04 -4.4281417290524799e-04 -4.3807143171266681e-05  1.1359191209687375e-01 1.2474309580921879e-04 -2.7057214184837382e-04  -2.0825831487788772e-04 -6.5455206588387375e-04 -4.2832125214475560e-06  1.1362345800358115e-01 3.1734065263676911e-04 -5.5710790670903494e-04  -5.0364564905771110e-06 -8.8385404150518676e-04 1.0855498056549332e-04  1.1386323344016169e-01 6.1871400752190055e-04 -9.7439895879348766e-04  1.5276564243725342e-04 -1.0826903864008554e-03 3.0344808731639630e-04  1.1447630517882981e-01 9.7855201774874404e-04 -1.4468236324216182e-03  2.1205527496393460e-04 -1.1396247972550199e-03 5.2374118549995815e-04  1.1562232082646663e-01 1.1367306584186127e-03 -1.7060693933630894e-03  2.2828542229256818e-04 -9.3891593376593438e-04 6.0534515718314646e-04  1.1609764144375111e-01 1.1244912521178282e-03 -1.3238847815354624e-03  4.0601625104446092e-04 -5.4047381369506399e-04 3.7105626517358782e-04  1.1254844826624423e-01 1.0441674277673386e-03 1.3476967355410889e-04  6.9572903847263357e-04 -2.0724484451169629e-04 1.8709559481100185e-04  1.0829758783736580e-01 -1.3622699707806866e-04 -3.4535431258500534e-03  9.5772308996707953e-04 -1.3947349501240074e-04 2.0216450380786715e-04  1.7200483622885593e-01 4.1146615948144799e-04 -6.8412725052305204e-05  1.7255093749390685e-01 -1.1725635017060584e-03 -1.1047976347275089e-03  1.7252647318812339e-01 3.4464330896041482e-04 -5.8127681601476412e-05  1.7276425354293803e-01 4.1569781920803526e-04 -1.6630747380676431e-04  1.7283699479607234e-01 6.2733594765608980e-04 -2.7291358744388261e-04  1.7294556958660784e-01 9.3563005980928557e-04 -3.6966274120782427e-04  1.7318353754985566e-01 1.1969296052440010e-03 -3.7740959438132800e-04  1.7353282589715308e-01 1.1034285091621444e-03 -1.5040938080516895e-04  1.7346474411047874e-01 4.6317972520330223e-04 3.8005197263445048e-04  1.7159406893667117e-01 -3.4800821576892922e-04 4.2362738475938466e-04  1.6761260962441310e-01 3.0348871511610975e-04 -4.4012860050647940e-03  1.9109853382357977e-01 2.4677322663190665e-04 -2.3314704016484355e-05  1.9144550739673272e-01 -7.8303327252204988e-04 -1.0653182947917858e-03  1.9150804872948146e-01 3.6033090519693766e-04 -1.5903960054619303e-05  1.9177357260933328e-01 3.5731984913923379e-04 -8.6243022255730307e-05  1.9192084186343450e-01 4.2782779942736668e-04 -1.2865451661075539e-04  1.9205519736867357e-01 5.4382700156738650e-04 -1.5266575873427668e-04  1.9218463412885162e-01 6.0432737572422212e-04 -1.2883216383836651e-04  1.9218278167956465e-01 4.4170377859209162e-04 1.1307875224583707e-05  1.9171856646403945e-01 -4.9985492419301512e-05 2.8031221158833540e-04  1.9040456457081295e-01 -6.4713640786680563e-04 -1.7078161093164517e-04  1.8717910774963939e-01 2.5541943963849591e-04 -4.2520523231685901e-03  1.7217026956250525e-01 1.7952324312909209e-04 -1.5292381575212862e-05  1.7237875888590082e-01 -4.3137789323873541e-04 -1.0118365745839751e-03  1.7251050629040951e-01 2.4972289668350177e-04 -3.0607128019222452e-07  1.7273797241886304e-01 2.0104826950491847e-04 -5.1021393178517316e-05  1.7288278946682598e-01 1.6608968413662259e-04 -6.9014899276662712e-05  1.7300277252708740e-01 1.4300518753402258e-04 -7.3116837628676716e-05  1.7306042665683974e-01 8.8299916745692233e-05 -6.1041599314186413e-05  1.7289823513921301e-01 -4.9516350539874720e-05 -8.9745406163518026e-06  1.7232490201640704e-01 -2.6150117273147553e-04 8.7355003421864022e-05  1.7140395574767747e-01 -3.6285030602512035e-04 -5.4098185129549238e-04  1.6946773074646465e-01 4.7300413328839997e-04 -3.7264492882699879e-03  1.1313229752476896e-01 1.0518817563577517e-04 -1.1521761515186239e-05  1.1256360895381791e-01 -3.9044578949213872e-04 -8.9413266811837937e-04  1.1339150252987107e-01 7.3349951758332917e-05 3.3516154267537196e-06  1.1351622018051845e-01 -4.2507676710999145e-05 -3.9495363714968015e-05  1.1356760599521526e-01 -1.6692531723651050e-04 -4.5949763499172579e-05  1.1359279721452224e-01 -2.9171884675646546e-04 -2.4563270592699308e-05  1.1357190390524446e-01 -4.2209768785263224e-04 2.7882160945201856e-05  1.1339155956235331e-01 -5.4334376778978591e-04 1.2181530880854827e-04  1.1291059410988404e-01 -5.8201186782412800e-04 1.8484947162525912e-04  1.1210882904948963e-01 -4.3297414169954259e-04 -4.2344863838491458e-04  1.1180480391419860e-01 4.9219454358501527e-04 -2.9027261843288439e-03  -9.2098959159103309e-04 -1.4219750154819307e-05 -1.7705546935858447e-05  -9.3570952755461507e-04 -1.6571155716575845e-05 -1.6486892217592658e-05  -8.4970346987942524e-04 -3.3684847525649750e-05 -3.9429773854697450e-05  -7.1595443450630407e-04 -6.0308158658212273e-05 -6.2360465387677891e-05  -5.1084742585792361e-04 -9.0956565294220113e-05 -7.9891446132978553e-05  -2.4053332697012534e-04 -1.1498580635131635e-04 -9.0088406407038470e-05  8.0633022138254309e-05 -1.2561483548558322e-04 -8.8592488091028093e-05  4.1878274817210129e-04 -1.1927708602368158e-04 -7.2618595167960327e-05  7.2363470149660756e-04 -9.4015641758326941e-05 -4.9693347041803139e-05  9.8389168771249088e-04 -5.9160921421617157e-05 -3.0092969988389888e-05  1.1008465861186475e-03 -3.5954462452412595e-05 -9.3187251227241586e-06  1.2434942448543433e-01 -1.8693631939964732e-04 -1.2295303854075415e-05  -5.6218289808111083e-04 -2.3854281817666941e-04 -6.5799627861339578e-05  -6.4948847192773196e-04 -1.5066686455125487e-04 -4.8809719538591978e-05  1.2519250992498432e-01 -1.1614963011800318e-03 -8.4891366072461594e-04  1.2494231245551810e-01 8.7301715600879487e-07 7.4900572115289162e-05  -4.0195133057826761e-04 -4.2711726724791393e-04 -9.8833898183420496e-05  1.2478300555148494e-01 1.4402996136912076e-04 -8.1443091990544711e-06  -1.5159819641743803e-04 -6.7708199799471481e-04 -8.9515713852873026e-05  1.2473129392182135e-01 3.4001303363851858e-04 -1.9053239505614254e-04  1.6158019685236661e-04 -1.0154205325751797e-03 1.7870952330391900e-05  1.2487162106378430e-01 7.3020708236871902e-04 -5.6540826821516112e-04  4.5377301424807725e-04 -1.4383094313059365e-03 2.9868516759687624e-04  1.2537414207557285e-01 1.4539843397070621e-03 -1.1707801579769019e-03  5.5089581850694162e-04 -1.8260051663533850e-03 7.9504072496936048e-04  1.2673278225960732e-01 2.2175144735718517e-03 -1.7723671628456946e-03  3.1927141349477839e-04 -1.8853432803346414e-03 1.3497546270522162e-03  1.2882054115426647e-01 1.5104542258295461e-03 -1.8488510330411567e-03  1.4138885089977978e-04 -1.3477976925811335e-03 1.4455873326928198e-03  1.2424673088281836e-01 1.3546484280645792e-03 -1.4253929581178632e-03  2.0598345370385072e-04 -5.8707869308740506e-04 5.9062692416108102e-04  1.1338771508531777e-01 1.4754602087877142e-03 -6.4852168422865689e-03  2.8840160643568870e-04 -4.1671422672296738e-04 9.3041162230939544e-04  1.9099140856095531e-01 4.1273895653070236e-04 -1.3732300583609748e-05  1.9149998389645440e-01 -1.1706323089797337e-03 -8.5267592269759325e-04  1.9148550602343309e-01 3.5123355965503412e-04 6.3624457091728806e-05  1.9170733898916886e-01 4.3667972719335613e-04 -2.7372069419066750e-06  1.9181050059688440e-01 7.0827452358732687e-04 -9.0981818036124423e-05  1.9196350443152585e-01 1.2031568152641365e-03 -2.0518477058692263e-04  1.9223150847854040e-01 1.8800143306980659e-03 -2.8492805257890498e-04  1.9265990695858221e-01 2.2069799262637232e-03 -1.3535233860850122e-04  1.9274038824102138e-01 1.0676402348358096e-03 3.5979564454619815e-04  1.8999211155195123e-01 -1.1155049658071556e-03 5.8573378940825465e-04  1.8232441602598115e-01 9.6789801761792916e-04 -7.3875411625848970e-03  2.1264542580407039e-01 2.6747867298464027e-04 1.1368862751989372e-05  2.1293960667671111e-01 -7.5573428549484379e-04 -8.2963083465815654e-04  2.1301945226720717e-01 3.7826772235642397e-04 8.8545858927621329e-05  2.1328334444027111e-01 3.8767057832238429e-04 5.4585793882027262e-05  2.1346039837912320e-01 4.9902749062826195e-04 3.4235452729963016e-05  2.1364370097521490e-01 7.0816278394035114e-04 1.7667437795256060e-05  2.1385293173418787e-01 9.1413340444641128e-04 -5.9370492950929499e-06  2.1395687421065085e-01 8.0664491185138728e-04 -3.9318374781486944e-05  2.1324885117531714e-01 -4.5504886806728796e-05 -9.4235779413779700e-05  2.1078913415530026e-01 -1.3398901627949787e-03 -3.9368623871399727e-04  2.0517462037648737e-01 5.5647214161801378e-04 -6.7467542031644304e-03  1.9113953150762675e-01 2.0487533336681815e-04 1.5799152335397466e-05  1.9129626939796024e-01 -3.8323898588167111e-04 -7.9396834510402927e-04  1.9143769815467618e-01 2.7471475675128903e-04 9.494331028