<?xml version="1.0"?>
<VTKFile type="UnstructuredGrid"  version="0.1"  >
<UnstructuredGrid>
<Piece  NumberOfPoints="539" NumberOfCells="2160">
<Points>
<DataArray  type="Float64"  NumberOfComponents="3"  format="ascii">0 0.2 0.2  0.1 0.2 0.2  0.1 0.3 0.2  0.1 0.3 0.3  0.1 0.2 0.3  0 0.2 0.3  0 0.3 0.2  0 0.3 0.3  0.2 0.2 0.2  0.2 0.3 0.2  0.2 0.3 0.3  0.2 0.2 0.3  0.3 0.2 0.2  0.3 0.3 0.2  0.3 0.3 0.3  0.3 0.2 0.3  0.4 0.2 0.2  0.4 0.3 0.2  0.4 0.3 0.3  0.4 0.2 0.3  0.5 0.2 0.2  0.5 0.3 0.2  0.5 0.3 0.3  0.5 0.2 0.3  0.6 0.2 0.2  0.6 0.3 0.2  0.6 0.3 0.3  0.6 0.2 0.3  0.7 0.2 0.2  0.7 0.3 0.2  0.7 0.3 0.3  0.7 0.2 0.3  0.8 0.2 0.2  0.8 0.3 0.2  0.8 0.3 0.3  0.8 0.2 0.3  0.9 0.2 0.2  0.9 0.3 0.2  0.9 0.3 0.3  0.9 0.2 0.3  1 0.2 0.2  1 0.3 0.2  1 0.3 0.3  1 0.2 0.3  0.1 0.4 0.2  0.1 0.4 0.3  0 0.4 0.2  0 0.4 0.3  0.2 0.4 0.2  0.2 0.4 0.3  0.3 0.4 0.2  0.3 0.4 0.3  0.4 0.4 0.2  0.4 0.4 0.3  0.5 0.4 0.2  0.5 0.4 0.3  0.6 0.4 0.2  0.6 0.4 0.3  0.7 0.4 0.2  0.7 0.4 0.3  0.8 0.4 0.2  0.8 0.4 0.3  0.9 0.4 0.2  0.9 0.4 0.3  1 0.4 0.2  1 0.4 0.3  0.1 0.5 0.2  0.1 0.5 0.3  0 0.5 0.2  0 0.5 0.3  0.2 0.5 0.2  0.2 0.5 0.3  0.3 0.5 0.2  0.3 0.5 0.3  0.4 0.5 0.2  0.4 0.5 0.3  0.5 0.5 0.2  0.5 0.5 0.3  0.6 0.5 0.2  0.6 0.5 0.3  0.7 0.5 0.2  0.7 0.5 0.3  0.8 0.5 0.2  0.8 0.5 0.3  0.9 0.5 0.2  0.9 0.5 0.3  1 0.5 0.2  1 0.5 0.3  0.1 0.6 0.2  0.1 0.6 0.3  0 0.6 0.2  0 0.6 0.3  0.2 0.6 0.2  0.2 0.6 0.3  0.3 0.6 0.2  0.3 0.6 0.3  0.4 0.6 0.2  0.4 0.6 0.3  0.5 0.6 0.2  0.5 0.6 0.3  0.6 0.6 0.2  0.6 0.6 0.3  0.7 0.6 0.2  0.7 0.6 0.3  0.8 0.6 0.2  0.8 0.6 0.3  0.9 0.6 0.2  0.9 0.6 0.3  1 0.6 0.2  1 0.6 0.3  0.1 0.7 0.2  0.1 0.7 0.3  0 0.7 0.2  0 0.7 0.3  0.2 0.7 0.2  0.2 0.7 0.3  0.3 0.7 0.2  0.3 0.7 0.3  0.4 0.7 0.2  0.4 0.7 0.3  0.5 0.7 0.2  0.5 0.7 0.3  0.6 0.7 0.2  0.6 0.7 0.3  0.7 0.7 0.2  0.7 0.7 0.3  0.8 0.7 0.2  0.8 0.7 0.3  0.9 0.7 0.2  0.9 0.7 0.3  1 0.7 0.2  1 0.7 0.3  0.1 0.8 0.2  0.1 0.8 0.3  0 0.8 0.2  0 0.8 0.3  0.2 0.8 0.2  0.2 0.8 0.3  0.3 0.8 0.2  0.3 0.8 0.3  0.4 0.8 0.2  0.4 0.8 0.3  0.5 0.8 0.2  0.5 0.8 0.3  0.6 0.8 0.2  0.6 0.8 0.3  0.7 0.8 0.2  0.7 0.8 0.3  0.8 0.8 0.2  0.8 0.8 0.3  0.9 0.8 0.2  0.9 0.8 0.3  1 0.8 0.2  1 0.8 0.3  0.1 0.3 0.4  0.1 0.2 0.4  0 0.2 0.4  0 0.3 0.4  0.2 0.3 0.4  0.2 0.2 0.4  0.3 0.3 0.4  0.3 0.2 0.4  0.4 0.3 0.4  0.4 0.2 0.4  0.5 0.3 0.4  0.5 0.2 0.4  0.6 0.3 0.4  0.6 0.2 0.4  0.7 0.3 0.4  0.7 0.2 0.4  0.8 0.3 0.4  0.8 0.2 0.4  0.9 0.3 0.4  0.9 0.2 0.4  1 0.3 0.4  1 0.2 0.4  0.1 0.4 0.4  0 0.4 0.4  0.2 0.4 0.4  0.3 0.4 0.4  0.4 0.4 0.4  0.5 0.4 0.4  0.6 0.4 0.4  0.7 0.4 0.4  0.8 0.4 0.4  0.9 0.4 0.4  1 0.4 0.4  0.1 0.5 0.4  0 0.5 0.4  0.2 0.5 0.4  0.3 0.5 0.4  0.4 0.5 0.4  0.5 0.5 0.4  0.6 0.5 0.4  0.7 0.5 0.4  0.8 0.5 0.4  0.9 0.5 0.4  1 0.5 0.4  0.1 0.6 0.4  0 0.6 0.4  0.2 0.6 0.4  0.3 0.6 0.4  0.4 0.6 0.4  0.5 0.6 0.4  0.6 0.6 0.4  0.7 0.6 0.4  0.8 0.6 0.4  0.9 0.6 0.4  1 0.6 0.4  0.1 0.7 0.4  0 0.7 0.4  0.2 0.7 0.4  0.3 0.7 0.4  0.4 0.7 0.4  0.5 0.7 0.4  0.6 0.7 0.4  0.7 0.7 0.4  0.8 0.7 0.4  0.9 0.7 0.4  1 0.7 0.4  0.1 0.8 0.4  0 0.8 0.4  0.2 0.8 0.4  0.3 0.8 0.4  0.4 0.8 0.4  0.5 0.8 0.4  0.6 0.8 0.4  0.7 0.8 0.4  0.8 0.8 0.4  0.9 0.8 0.4  1 0.8 0.4  0.1 0.3 0.5  0.1 0.2 0.5  0 0.2 0.5  0 0.3 0.5  0.2 0.3 0.5  0.2 0.2 0.5  0.3 0.3 0.5  0.3 0.2 0.5  0.4 0.3 0.5  0.4 0.2 0.5  0.5 0.3 0.5  0.5 0.2 0.5  0.6 0.3 0.5  0.6 0.2 0.5  0.7 0.3 0.5  0.7 0.2 0.5  0.8 0.3 0.5  0.8 0.2 0.5  0.9 0.3 0.5  0.9 0.2 0.5  1 0.3 0.5  1 0.2 0.5  0.1 0.4 0.5  0 0.4 0.5  0.2 0.4 0.5  0.3 0.4 0.5  0.4 0.4 0.5  0.5 0.4 0.5  0.6 0.4 0.5  0.7 0.4 0.5  0.8 0.4 0.5  0.9 0.4 0.5  1 0.4 0.5  0.1 0.5 0.5  0 0.5 0.5  0.2 0.5 0.5  0.3 0.5 0.5  0.4 0.5 0.5  0.5 0.5 0.5  0.6 0.5 0.5  0.7 0.5 0.5  0.8 0.5 0.5  0.9 0.5 0.5  1 0.5 0.5  0.1 0.6 0.5  0 0.6 0.5  0.2 0.6 0.5  0.3 0.6 0.5  0.4 0.6 0.5  0.5 0.6 0.5  0.6 0.6 0.5  0.7 0.6 0.5  0.8 0.6 0.5  0.9 0.6 0.5  1 0.6 0.5  0.1 0.7 0.5  0 0.7 0.5  0.2 0.7 0.5  0.3 0.7 0.5  0.4 0.7 0.5  0.5 0.7 0.5  0.6 0.7 0.5  0.7 0.7 0.5  0.8 0.7 0.5  0.9 0.7 0.5  1 0.7 0.5  0.1 0.8 0.5  0 0.8 0.5  0.2 0.8 0.5  0.3 0.8 0.5  0.4 0.8 0.5  0.5 0.8 0.5  0.6 0.8 0.5  0.7 0.8 0.5  0.8 0.8 0.5  0.9 0.8 0.5  1 0.8 0.5  0.1 0.3 0.6  0.1 0.2 0.6  0 0.2 0.6  0 0.3 0.6  0.2 0.3 0.6  0.2 0.2 0.6  0.3 0.3 0.6  0.3 0.2 0.6  0.4 0.3 0.6  0.4 0.2 0.6  0.5 0.3 0.6  0.5 0.2 0.6  0.6 0.3 0.6  0.6 0.2 0.6  0.7 0.3 0.6  0.7 0.2 0.6  0.8 0.3 0.6  0.8 0.2 0.6  0.9 0.3 0.6  0.9 0.2 0.6  1 0.3 0.6  1 0.2 0.6  0.1 0.4 0.6  0 0.4 0.6  0.2 0.4 0.6  0.3 0.4 0.6  0.4 0.4 0.6  0.5 0.4 0.6  0.6 0.4 0.6  0.7 0.4 0.6  0.8 0.4 0.6  0.9 0.4 0.6  1 0.4 0.6  0.1 0.5 0.6  0 0.5 0.6  0.2 0.5 0.6  0.3 0.5 0.6  0.4 0.5 0.6  0.5 0.5 0.6  0.6 0.5 0.6  0.7 0.5 0.6  0.8 0.5 0.6  0.9 0.5 0.6  1 0.5 0.6  0.1 0.6 0.6  0 0.6 0.6  0.2 0.6 0.6  0.3 0.6 0.6  0.4 0.6 0.6  0.5 0.6 0.6  0.6 0.6 0.6  0.7 0.6 0.6  0.8 0.6 0.6  0.9 0.6 0.6  1 0.6 0.6  0.1 0.7 0.6  0 0.7 0.6  0.2 0.7 0.6  0.3 0.7 0.6  0.4 0.7 0.6  0.5 0.7 0.6  0.6 0.7 0.6  0.7 0.7 0.6  0.8 0.7 0.6  0.9 0.7 0.6  1 0.7 0.6  0.1 0.8 0.6  0 0.8 0.6  0.2 0.8 0.6  0.3 0.8 0.6  0.4 0.8 0.6  0.5 0.8 0.6  0.6 0.8 0.6  0.7 0.8 0.6  0.8 0.8 0.6  0.9 0.8 0.6  1 0.8 0.6  0.1 0.3 0.7  0.1 0.2 0.7  0 0.2 0.7  0 0.3 0.7  0.2 0.3 0.7  0.2 0.2 0.7  0.3 0.3 0.7  0.3 0.2 0.7  0.4 0.3 0.7  0.4 0.2 0.7  0.5 0.3 0.7  0.5 0.2 0.7  0.6 0.3 0.7  0.6 0.2 0.7  0.7 0.3 0.7  0.7 0.2 0.7  0.8 0.3 0.7  0.8 0.2 0.7  0.9 0.3 0.7  0.9 0.2 0.7  1 0.3 0.7  1 0.2 0.7  0.1 0.4 0.7  0 0.4 0.7  0.2 0.4 0.7  0.3 0.4 0.7  0.4 0.4 0.7  0.5 0.4 0.7  0.6 0.4 0.7  0.7 0.4 0.7  0.8 0.4 0.7  0.9 0.4 0.7  1 0.4 0.7  0.1 0.5 0.7  0 0.5 0.7  0.2 0.5 0.7  0.3 0.5 0.7  0.4 0.5 0.7  0.5 0.5 0.7  0.6 0.5 0.7  0.7 0.5 0.7  0.8 0.5 0.7  0.9 0.5 0.7  1 0.5 0.7  0.1 0.6 0.7  0 0.6 0.7  0.2 0.6 0.7  0.3 0.6 0.7  0.4 0.6 0.7  0.5 0.6 0.7  0.6 0.6 0.7  0.7 0.6 0.7  0.8 0.6 0.7  0.9 0.6 0.7  1 0.6 0.7  0.1 0.7 0.7  0 0.7 0.7  0.2 0.7 0.7  0.3 0.7 0.7  0.4 0.7 0.7  0.5 0.7 0.7  0.6 0.7 0.7  0.7 0.7 0.7  0.8 0.7 0.7  0.9 0.7 0.7  1 0.7 0.7  0.1 0.8 0.7  0 0.8 0.7  0.2 0.8 0.7  0.3 0.8 0.7  0.4 0.8 0.7  0.5 0.8 0.7  0.6 0.8 0.7  0.7 0.8 0.7  0.8 0.8 0.7  0.9 0.8 0.7  1 0.8 0.7  0.1 0.3 0.8  0.1 0.2 0.8  0 0.2 0.8  0 0.3 0.8  0.2 0.3 0.8  0.2 0.2 0.8  0.3 0.3 0.8  0.3 0.2 0.8  0.4 0.3 0.8  0.4 0.2 0.8  0.5 0.3 0.8  0.5 0.2 0.8  0.6 0.3 0.8  0.6 0.2 0.8  0.7 0.3 0.8  0.7 0.2 0.8  0.8 0.3 0.8  0.8 0.2 0.8  0.9 0.3 0.8  0.9 0.2 0.8  1 0.3 0.8  1 0.2 0.8  0.1 0.4 0.8  0 0.4 0.8  0.2 0.4 0.8  0.3 0.4 0.8  0.4 0.4 0.8  0.5 0.4 0.8  0.6 0.4 0.8  0.7 0.4 0.8  0.8 0.4 0.8  0.9 0.4 0.8  1 0.4 0.8  0.1 0.5 0.8  0 0.5 0.8  0.2 0.5 0.8  0.3 0.5 0.8  0.4 0.5 0.8  0.5 0.5 0.8  0.6 0.5 0.8  0.7 0.5 0.8  0.8 0.5 0.8  0.9 0.5 0.8  1 0.5 0.8  0.1 0.6 0.8  0 0.6 0.8  0.2 0.6 0.8  0.3 0.6 0.8  0.4 0.6 0.8  0.5 0.6 0.8  0.6 0.6 0.8  0.7 0.6 0.8  0.8 0.6 0.8  0.9 0.6 0.8  1 0.6 0.8  0.1 0.7 0.8  0 0.7 0.8  0.2 0.7 0.8  0.3 0.7 0.8  0.4 0.7 0.8  0.5 0.7 0.8  0.6 0.7 0.8  0.7 0.7 0.8  0.8 0.7 0.8  0.9 0.7 0.8  1 0.7 0.8  0.1 0.8 0.8  0 0.8 0.8  0.2 0.8 0.8  0.3 0.8 0.8  0.4 0.8 0.8  0.5 0.8 0.8  0.6 0.8 0.8  0.7 0.8 0.8  0.8 0.8 0.8  0.9 0.8 0.8  1 0.8 0.8  </DataArray>
</Points>
<Cells>
[...]
<PointData  Vectors="f_23"> 
<DataArray  type="Float64"  Name="f_23"  NumberOfComponents="3" format="ascii">8.7997552836662754e-04 2.5316687334681802e-04 9.1656841252827363e-06  7.8418316111531058e-04 3.6639257749262620e-04 -2.4951170570330533e-06  8.8563014906888179e-04 2.6320763950546188e-04 1.1601744123539286e-05  8.0189814330948309e-02 3.9457313547940954e-04 6.0816373516115645e-04  7.7529997732766413e-04 3.4989842513996904e-04 4.0084655226616529e-06  8.6292729242855467e-04 2.3771584862700753e-04 1.6633878487162743e-05  9.7387189405510031e-04 1.7252581716358038e-04 1.4680315217419820e-05  7.9105534249219470e-02 1.7467298186466501e-03 1.4990648782828389e-03  6.5500350753965443e-04 5.5896654735661710e-04 -3.8440363490406053e-05  7.5749618579270086e-04 4.2720616694381258e-04 -4.0961194841956405e-06  7.9226869321168403e-02 9.8840183509274436e-05 3.4014439741795604e-04  6.4323204285596019e-04 5.7155809820335984e-04 -3.1278742912375709e-05  4.8766430189322972e-04 7.1578826083701537e-04 -1.0572858976449055e-04  5.8718944578606627e-04 5.6051824357327210e-04 -4.0325433553343167e-05  7.9101474674689337e-02 -1.1527314320945994e-04 4.4850047324014608e-04  4.6369433143091050e-04 7.8795463720325067e-04 -1.1337400605645573e-04  2.9643944763690401e-04 8.0614930482602839e-04 -1.8822705305606921e-04  3.7723556857368365e-04 6.4511182268490628e-04 -9.2095907142383853e-05  7.8783897018131960e-02 -3.4612059433687512e-04 6.8531057222484559e-04  2.7488399163656671e-04 9.6262636637937601e-04 -2.3842358297167254e-04  6.7644106587286067e-05 7.9048255767224487e-04 -2.4240110843359113e-04  1.1701601627076004e-04 6.5362758719880330e-04 -1.3300609277625900e-04  7.8233237107010023e-02 -6.2305522765466624e-04 1.0132797897221405e-03  8.9299379608810640e-05 1.0374302086525512e-03 -3.6369714852734224e-04  -2.4933346571573488e-04 6.5080818111276227e-04 -2.1679649045310183e-04  -2.2627680320209438e-04 5.6721553826309494e-04 -1.2759510556914602e-04  7.7482055390445628e-02 -8.6209872526225124e-04 1.3335480749392073e-03  -1.3425041500368269e-04 9.4579244668397495e-04 -4.0301145865572147e-04  -7.0130871845117116e-04 4.2844588523389910e-04 -1.1356278634096087e-04  -6.8416143187722113e-04 4.0244417864012576e-04 -6.8638985080455144e-05  7.6930776882478444e-02 -1.0005123711985717e-03 1.3963959787644236e-03  -4.9247334334294208e-04 6.8431216274315095e-04 -2.9114157772422807e-04  -1.2047558599488535e-03 2.1062405847079382e-04 -2.3558559613613313e-05  -1.1990064444337594e-03 2.2045507604052169e-04 -1.0872637118982629e-05  7.7888212087306161e-02 -1.0039565910340705e-03 6.1514380649588848e-04  -1.0034996285864621e-03 3.5796020343736558e-04 -1.2311533757445689e-04  -1.5395192240280798e-03 7.0758265340104478e-05 -2.9848177675485801e-05  -1.5685978418996942e-03 8.1121603912760699e-05 -1.9457942307590314e-06  8.1896411116811230e-02 -7.4976340713341961e-04 -9.2907224309343988e-04  -1.4412852961878226e-03 1.4149115519430401e-04 -7.7911370981773357e-05  -1.7141438322364718e-03 8.5586165549673989e-05 -1.1832761501314697e-06  -1.7315823415643432e-03 6.5499358192356842e-05 1.5901666340221806e-05  8.5295344629447947e-02 2.7821158544876200e-04 1.7014368440412214e-03  -1.6717907755821779e-03 1.1074460967762754e-04 -4.9846015207215367e-05  1.0311275096716423e-03 1.6609367448445453e-04 2.4202525059049620e-05  1.1663928262832204e-01 -3.0374994660991379e-04 4.4853564176326695e-04  1.1162400708524234e-03 1.0979460572017268e-04 2.1324122183173861e-05  1.1539622052377842e-01 1.7228159340081585e-03 1.5110060911616551e-03  8.8132013764034801e-04 2.7733918708205268e-04 2.8667963767228477e-05  1.1581611678012800e-01 -3.2378979817016673e-04 2.6753455765133157e-04  6.7922381000628845e-04 3.7188467061242963e-04 2.1098131734510656e-05  1.1546440801645913e-01 -3.8911091112470869e-04 2.4433606475434951e-04  4.1880558459455978e-04 4.3137209973289660e-04 4.7882151977979272e-06  1.1519944597348397e-01 -5.4503890003865035e-04 2.5323643089004923e-04  9.0866421146314525e-05 4.3878464430607817e-04 -7.9393760052224138e-06  1.1487318129074554e-01 -7.0641177602804087e-04 2.3609669219288801e-04  -3.1895809746621998e-04 3.8405563000652688e-04 -1.4603441767915216e-06  1.1456391405634868e-01 -7.4252048059712003e-04 1.0443399149413412e-04  -8.1481387926638448e-04 2.7816714278074866e-04 2.4360745556087523e-05  1.1459373060901146e-01 -5.4317535769823791e-04 -2.5846035679686925e-04  -1.3290015234118835e-03 1.5971695467337569e-04 3.7079772974185088e-05  1.1565551298664611e-01 -1.2942207523585975e-04 -9.4288808534144324e-04  -1.6819641436267019e-03 6.8652594781631139e-05 2.1679433723366491e-05  1.1856265600563792e-01 3.5217071382373445e-04 -1.4112365579583962e-03  -1.8324518929704737e-03 5.1256591692617440e-05 4.6332735200667025e-05  1.2180607764396503e-01 2.9551667645390814e-04 1.8717644409744244e-03  1.1258944441511769e-03 1.0317166531835455e-04 3.0699054821571516e-05  1.2665137424835665e-01 -1.3857132192339128e-04 3.4956371649383448e-04  1.2079905398908782e-03 6.6184431070800978e-05 2.3595270559839683e-05  1.2565083728100823e-01 1.1512664946522675e-03 1.4353505015212451e-03  9.6692554181610055e-04 1.7647336483704210e-04 4.3328870703166680e-05  1.2595683871643346e-01 -3.2080160721799844e-04 1.7054988041120500e-04  7.4115358675045718e-04 2.3968410005801178e-04 4.9950442562764770e-05  1.2558945701776714e-01 -3.2047364704859178e-04 1.1476539392050238e-04  4.4229113161065947e-04 2.7780103728725260e-04 5.1658328200920142e-05  1.2526437822720515e-01 -3.5211547000492985e-04 6.8728179556074283e-05  6.6142325592615943e-05 2.7785875663382230e-04 5.4047246823041524e-05  1.2496293502512962e-01 -3.7272506560803053e-04 -1.7716378917255247e-05  -3.8798911065578839e-04 2.3451138391594728e-04 6.2718663339898247e-05  1.2483386160218947e-01 -2.9266941489346991e-04 -2.1592090309073835e-04  -9.0552310961179196e-04 1.5932282383803560e-04 7.3463893101876617e-05  1.2518869631688240e-01 -3.4545388433526272e-05 -6.0168385947880897e-04  -1.4118324631358630e-03 8.4434685888190440e-05 6.3490900667571750e-05  1.2642795984692196e-01 3.6722601155923698e-04 -1.1405537876471815e-03  -1.7515978014083545e-03 3.6765911624912872e-05 3.5345143968101859e-05  1.2882634991716171e-01 7.1556657129681991e-04 -1.1909117965907174e-03  -1.8940543177918773e-03 2.9555566288029677e-05 5.6126348317014972e-05  1.3181494520884512e-01 3.5656694168501230e-04 1.6042464392639105e-03  1.1883120585026474e-03 6.1301676858454391e-05 3.2041870937107509e-05  1.1634254001861581e-01 -9.5492330190671110e-05 2.8009875637042468e-04  1.2646629443328948e-03 3.2502634137866195e-05 2.4142367406297159e-05  1.1546737507601218e-01 6.5636019333083781e-04 1.3330356189065801e-03  1.0281184270078990e-03 1.1160360214654715e-04 4.5728592893565162e-05  1.1576157502527622e-01 -1.9773247539812806e-04 1.1786924170907698e-04  7.8898356081335348e-04 1.5889185670782201e-04 5.5019672652796503e-05  1.1544971126620530e-01 -1.5042296557520629e-04 5.4539432792694194e-05  4.6317380120733446e-04 1.9018049819740211e-04 6.1699795624161531e-05  1.1514917383818292e-01 -8.9928500844337178e-05 1.6844321578106281e-06  5.1681600106347165e-05 1.9394306815639253e-04 6.8026750600694842e-05  1.1488851439314286e-01 -9.5495429769423926e-06 -8.4116137106717221e-05  -4.3549454650881712e-04 1.6519911251934431e-04 7.5022443917308960e-05  1.1484626082356665e-01 1.2263906168138059e-04 -2.5788829401148942e-04  -9.6827688802707213e-04 1.1178544269369101e-04 7.8227516879120175e-05  1.1530270505968576e-01 3.1934988460486171e-04 -5.7103635601389190e-04  -1.4629888182615123e-03 5.8406130677539200e-05 6.1640099275035566e-05  1.1651768493215087e-01 5.1608600064986126e-04 -9.4595937979858745e-04  -1.7862542725462381e-03 1.8716427532775636e-05 3.5051857757972154e-05  1.1852162429802969e-01 5.1391725949199898e-04 -8.3687560422943640e-04  -1.9198518612053386e-03 2.2397175066505413e-05 4.9022825586947194e-05  1.2077329861731015e-01 2.0986265507566532e-04 1.3279083678124960e-03  1.2355707600034038e-03 3.0250145081906429e-05 3.1683506418179643e-05  8.0636896143337203e-02 -9.6738029514572977e-05 2.2619153534700966e-04  1.2993309465971100e-03 1.3611791587971596e-05 2.4518714170979714e-05  8.0583323894282646e-02 4.1195678446777275e-04 1.1082054006714239e-03  1.0863700849359141e-03 6.8011102064653695e-05 4.2663899481980199e-05  8.0170558711838272e-02 -3.8955781356986730e-05 8.6629502114999807e-05  8.4923601712312026e-04 1.1259059777645055e-04 4.6760617494118188e-05  7.9984105546035841e-02 1.0547574260655550e-04 2.8110131289337576e-05  5.1209809528816397e-04 1.5165061466798898e-04 4.9763787534305616e-05  7.9825166210601969e-02 2.5047090431914700e-04 -1.2882382701109157e-05  7.9631961638315714e-05 1.7173782340184984e-04 5.3016941019932084e-05  7.9687156657585898e-02 4.1060457227568145e-04 -8.8792395672164127e-05  -4.3286943355327960e-04 1.6596094360213086e-04 5.5166876669097877e-05  7.9697829955394345e-02 5.7652011762673633e-04 -2.3588567799026183e-04  -9.8907484167079312e-04 1.3626472357614687e-04 5.3522334784424961e-05  8.0040897730847729e-02 7.1483138428629818e-04 -4.6983228378493478e-04  -1.4996213314280367e-03 9.3632545371603239e-05 4.1296647271623214e-05  8.0909840394047625e-02 7.6225524037787525e-04 -7.0426637168683132e-04  -1.8122180278508787e-03 4.6903379642618003e-05 2.5545398501140937e-05  8.2587956920805741e-02 6.3052513980258731e-04 -5.6124746402849810e-04  -1.9318630386988538e-03 3.8258238947272171e-05 3.0076405971161993e-05  8.3579129023206716e-02 -1.9913522441694555e-05 1.1687097095581757e-03  1.2793103460877885e-03 1.9683215138212544e-05 2.8017090380060792e-05  1.2973289924133526e-03 1.5897566264836518e-05 2.1936383993431200e-05  1.3150538140187047e-03 9.6757822860605621e-06 1.8343153818132135e-05  1.3261572663707799e-03 9.3152894776182064e-06 1.6783815134019306e-05  1.1670516939250501e-03 5.6032659743611326e-05 3.8297047163440406e-05  1.2058639636141606e-03 4.1086219847702393e-05 3.6737614151722775e-05  9.6690002132402016e-04 9.6280114398907874e-05 4.9439220850180766e-05  1.0398106340345902e-03 8.4667811317943662e-05 4.3344845658465248e-05  6.7178668711018576e-04 1.3624789780391380e-04 5.1661420794212191e-05  7.8265374188569981e-04 1.3014973971203303e-04 4.6194590726112441e-05  2.7734810148013643e-04 1.6326237512418978e-04 5.1121390190974448e-05  4.2896371812445701e-04 1.6365859337090310e-04 4.8778591648336036e-05  -2.0951910599074474e-04 1.6801860159089036e-04 4.9913564285974726e-05  -1.6527145451869569e-05 1.7460491480152739e-04 5.1413062225371595e-05  -7.6547888613304367e-04 1.4731004573885796e-04 4.8850315987018345e-05  -5.4047420145645014e-04 1.6026386434362917e-04 5.3238007949359881e-05  -1.3272559136226214e-03 1.0222879116522753e-04 4.6064450120437632e-05  -1.1035126632566415e-03 1.2578509026527364e-04 5.0813028516194027e-05  -1.7585044288903550e-03 6.0075549082725871e-05 2.5507891756980896e-05  -1.5840603521028206e-03 7.6728936947037060e-05 3.5572216997484588e-05  -1.9243304447117918e-03 4.6548634274186425e-05 1.0441398165052531e-05  -1.8003382572126948e-03 5.0357621506737608e-05 2.2599009716224114e-05  1.1688200322325895e-01 3.0767340277391216e-04 2.1237948237754566e-04  7.7402515774090391e-04 3.4505809269991597e-04 3.0678637608321345e-05  8.7827366683613530e-04 2.2548337101801981e-04 3.7541388721755568e-05  1.1584449646881430e-01 1.7545660937695919e-03 1.2059292007691603e-03  1.1596930252616135e-01 8.9712625533748780e-05 1.7843379220507663e-04  5.9933633327211922e-04 5.9706006801629014e-04 1.1995174745411766e-05  1.1600536749471355e-01 -1.2975720746093329e-04 3.9967763033187510e-04  3.5894256128354791e-04 8.8828027730148286e-04 -6.9640868159202436e-05  1.1591302698710371e-01 -3.8999301155608784e-04 7.8822257066298571e-04  1.0809605646726823e-04 1.2023745639119022e-03 -2.3928445932651203e-04  1.1554229508395414e-01 -7.7783599047502605e-04 1.3403759953021389e-03  -8.9466695231514475e-05 1.4717287101090369e-03 -4.8436895917247863e-04  1.1467788088312504e-01 -1.2115074390830634e-03 1.8984563877766298e-03  -2.1198987361690407e-04 1.5493065657679970e-03 -6.9592962959910535e-04  1.1318476583216766e-01 -1.3626530257529836e-03 2.0654636988358408e-03  -3.7435296093976981e-04 1.2849996143838715e-03 -6.6371821905194422e-04  1.1289201293915742e-01 -1.3582761759888891e-03 1.2556515071886194e-03  -7.5018898968488921e-04 7.3236664610929869e-04 -3.5755692934003074e-04  1.1855207529726967e-01 -1.4344497814032110e-03 -1.2036155672746490e-03  -1.2071712731509116e-03 2.9371440703382059e-04 -2.2864886286995192e-04  1.2506712266979028e-01 -3.9415185298994601e-06 2.5392547352886263e-03  -1.5180707363289911e-03 2.1037820505882151e-04 -2.4359370315222911e-04  1.7440926441668447e-01 -4.4225599111541106e-04 1.7071511416700801e-04  1.7365905679654423e-01 1.8107949763898493e-03 1.2673505021354161e-03  1.7368010825456465e-01 -3.7002116890762389e-04 1.9081391615925487e-04  1.7330278795126955e-01 -4.9037003220749379e-04 3.2602711493448408e-04  1.7313791679190582e-01 -7.8694522131596983e-04 4.7933573526975296e-04  1.7293537384309821e-01 -1.1854543646405387e-03 5.9035045568229215e-04  1.7260149108684966e-01 -1.4817288327036932e-03 4.6821943495206858e-04  1.7225889701475144e-01 -1.2849789273790698e-03 -1.6396770951909148e-04  1.7284018557529240e-01 -4.2481932926096436e-04 -1.4360028232709304e-03  1.7647989746733581e-01 5.4660931386521776e-04 -2.3037819161675485e-03  1.8274017799274661e-01 -1.6805800834344235e-04 3.1220056845977055e-03  1.9135919103943683e-01 -2.1993650827645757e-04 1.1616295785661728e-04  1.9092919333516153e-01 1.2070056237978002e-03 1.2613674630853956e-03  1.9081028360700453e-01 -3.9701468959028245e-04 1.4977360756477143e-04  1.9041245787183891e-01 -4.1314636948311552e-04 2.3960701610272383e-04  1.9014769742159573e-01 -5.1438133916505971e-04 3.1519229007001380e-04  1.8990816352049916e-01 -6.5481389882584401e-04 3.3610273798823982e-04  1.8973057432566595e-01 -6.9288629050837374e-04 1.6633190820279005e-04  1.8988972030805870e-01 -4.0700951568467845e-04 -3.9383075453996812e-04  1.9105229513180355e-01 3.1579661911432239e-04 -1.4226369406168090e-03  1.9404511589728149e-01 1.1286322863103778e-03 -1.7685256804844884e-03  1.9937219746460255e-01 1.1275890028067159e-04 2.7277859416619133e-03  1.7411087196913899e-01 -1.4903676584460192e-04 8.2763837276350581e-05  1.7384912253436055e-01 6.6228066918021516e-04 1.2110298802394490e-03  1.7367934821989400e-01 -2.6767776086816141e-04 1.1090109038929096e-04  1.7334989581831275e-01 -2.1958013418210549e-04 1.7850785703711549e-04  1.7310375712363657e-01 -1.7689975114549981e-04 2.2436171342848815e-04  1.7289486964823675e-01 -1.3555075967080094e-04 2.2950490782503290e-04  1.7281840798124240e-01 -3.2183574122682338e-05 1.0388580488959542e-04  1.7318368328085301e-01 2.1537044173291126e-04 -2.8873088662311375e-04  1.7447053780009600e-01 6.0937098583644311e-04 -1.0179266157464082e-03  1.7688971482172805e-01 8.4877543647035375e-04 -1.0689699910399573e-03  1.8043611212305208e-01 -6.2805328280625495e-05 2.3406246813423067e-03  1.1659067555664196e-01 -1.2650704263996761e-04 3.9540989221907185e-05  1.1714508159190555e-01 3.9782503606937864e-04 1.0737755745321752e-03  1.1626838883575444e-01 -7.6637971716472970e-05 5.5201980221823261e-05  1.1608554759393856e-01 6.9693219449277487e-05 1.0894919257101796e-04  1.1598333960475343e-01 2.3013562398936042e-04 1.3452554447147469e-04  1.1591325733367036e-01 3.9685155497426808e-04 1.2191843150273584e-04  1.1592836845572764e-01 5.7913468994274229e-04 1.4975847231635313e-05  1.1624202617679119e-01 7.7098851645743336e-04 -2.7205133960486245e-04  1.1720721486732001e-01 9.0347939117683582e-04 -7.2312102542578416e-04  1.1912345372571916e-01 7.9897545767700410e-04 -5.3903940507474464e-04  1.2045289076812930e-01 -2.5128015057331038e-04 2.1344351068455464e-03  1.3185858762425956e-03 1.5778825154077994e-05 1.2032584422996802e-05  1.3466512192905847e-03 1.0815024766067742e-05 1.4232973627804041e-05  1.2249372834206272e-03 3.9857497406402228e-05 2.9690841069785810e-05  1.0546047881923573e-03 8.0554374480729021e-05 4.3276457497404446e-05  8.0127834242555481e-04 1.2136407122176541e-04 5.3480681753567977e-05  4.5492370868040606e-04 1.5221250046007950e-04 6.3630492097625709e-05  1.6395719160878545e-05 1.6202251466262112e-04 7.6000461125320414e-05  -5.0597594969107305e-04 1.4602133560949143e-04 8.8889639560702828e-05  -1.0817549014538706e-03 1.1014679575173858e-04 9.1754668702327143e-05  -1.5885308719082911e-03 6.2913660759734727e-05 6.9470493009050790e-05  -1.8109454821935004e-03 3.4547821210856315e-05 5.5709164417617411e-05  1.2707001929091891e-01 2.9251317480487738e-04 6.4014990518054460e-05  7.9931544077528713e-04 3.1242169239488563e-04 6.8198459282538392e-05  9.1824662186811793e-04 1.9588209949661199e-04 5.8036319755492691e-05  1.2604998769392237e-01 1.7764249121220818e-03 9.9674471916630348e-04  1.2623521579331962e-01 4.1147106496883826e-05 -3.1803885484590064e-05  5.8345048397896162e-04 5.6537364720695414e-04 9.3627629052710532e-05  1.2641713170504326e-01 -1.7127832408722800e-04 8.1086241676704747e-05  2.6667654946862173e-04 9.0468800508509755e-04 6.1532132743701454e-05  1.2646819365427392e-01 -4.4649247453099338e-04 3.5815015370350983e-04  -1.0276309787132828e-04 1.3635408155842396e-03 -8.6759867529535866e-05  1.2626818168105480e-01 -9.7195653272444383e-04 8.8528113653555133e-04  -4.1873598837146615e-04 1.9300812200516838e-03 -4.1733808145624757e-04  1.2556105244403820e-01 -1.8912752902219775e-03 1.6042178644587214e-03  -5.3846559769568257e-04 2.4385451485882284e-03 -9.1310632607123144e-04  1.2363229936169597e-01 -2.7535968988622308e-03 2.0740473070908192e-03  -4.5179925514693783e-04 2.5017152295119705e-03 -1.2752423101075338e-03  1.2084868190930285e-01 -1.7171333613597961e-03 1.5870517252570780e-03  -3.8726168816412672e-04 1.7540725565293781e-03 -8.8335827324691142e-04  1.2764640555131923e-01 -1.7238248748574999e-03 5.5091780637177186e-05  -6.0188529615594214e-04 7.7073629896235330e-04 -4.7617965868333468e-04  1.4367138704962831e-01 -2.1650124545040503e-03 4.3250827933117644e-03  -8.1406131384771532e-04 5.3248006813939647e-04 -9.4031645275511884e-04  1.9152013910949228e-01 -4.4974987090159221e-04 1.2542580793284018e-04  1.9080180099469363e-01 1.8225579670923362e-03 1.0292809057448698e-03  1.9084372960203497e-01 -3.7946675142330456e-04 6.8546951460571751e-05  1.9050933556964816e-01 -5.2100651535553447e-04 1.7571866868913651e-04  1.9033422047608459e-01 -9.0546936746180578e-04 3.4325324681751436e-04  1.9009619062979441e-01 -1.5650965437420622e-03 5.0727031354688755e-04  1.8970084903979975e-01 -2.4042724956806582e-03 4.3791789392787125e-04  1.8908021206418352e-01 -2.6833433797593298e-03 -3.1462044035380631e-04  1.8905682703335500e-01 -1.0475247553279386e-03 -1.9887529052220534e-03  1.9345216285788708e-01 1.6896805855318030e-03 -3.6933963236764986e-03  2.0482520470230300e-01 -8.9465814088276140e-04 4.7914530400812311e-03  2.1085126300781454e-01 -2.3927301191649248e-04 1.1018118380353887e-04  2.1046926365619267e-01 1.2086325121548926e-03 1.0376548668328029e-03  2.1036764917167822e-01 -4.1027619661326782e-04 5.8050674922609393e-05  2.1000140233499567e-01 -4.4205813098353646e-04 1.2571066388596423e-04  2.0972699841199563e-01 -5.9898555931104866e-04 2.0628085578987477e-04  2.0943489489387129e-01 -8.6595366474513495e-04 2.4187764883612368e-04  2.0910662480904949e-01 -1.0925670800516734e-03 9.3774081127184710e-05  2.0893923739966086e-01 -8.5416346989846260e-04 -4.5119185577046191e-04  2.1000728112726155e-01 3.8151699285028710e-04 -1.5152016609552002e-03  2.1405205864530016e-01 2.1042480954885328e-03 -2.7091350060391164e-03  2.2266305039158746e-01 -1.4539745949890330e-04 3.8847121946532321e-03  1.9122041173957874e-01 -1.6540479669686646e-04 9.0705277205027250e-05  1.9101827239665600e-01 6.4851411254413795e-04 1.0164375209236387e-03  1.9085902981677433e-01 -2.7864974674133880e-04 3.4017104670760642e-05  1.9056835086086146e-01 -2.2843021906520243e-04 8.3237795836544861e-05  1.9032098676486514e-01 -2.0337541259275420e-04 1.3036814682860161e-04  1.9007804092890163e-01 -1.9409762395305012e-04 1.4188