<?xml version="1.0"?>
<VTKFile type="UnstructuredGrid"  version="0.1"  >
<UnstructuredGrid>
<Piece  NumberOfPoints="5502" NumberOfCells="26979">
<Points>
<DataArray  type="Float64"  NumberOfComponents="3"  format="ascii">0 0 0  0.869 0 0  0.869 0 0.869  0 0 0.869  0 0.869 0  0.869 0.869 0  0.869 0.869 0.869  0 0.869 0.869  0 0.87 0  0.87 0.87 0  0.87 0 0  0.87 0 0.87  0 0 0.87  0.87 0.87 0.87  0 0.87 0.87  0 0.88 0  0.88 0.88 0  0.88 0 0  0.88 0 0.88  0 0 0.88  0.88 0.88 0.88  0 0.88 0.88  0 1 0  1 1 0  1 0 0  1 0 1  0 0 1  1 1 1  0 1 1  0.869 0.869 0.7821  0.869 0.869 0.6952  0.869 0.869 0.6083  0.869 0.869 0.5214  0.869 0.869 0.4345  0.869 0.869 0.3476  0.869 0.869 0.2607  0.869 0.869 0.1738  0.869 0.869 0.08690000000000001  0.7821 0.869 0.869  0.6952 0.869 0.869  0.6083 0.869 0.869  0.5214 0.869 0.869  0.4345 0.869 0.869  0.3476 0.869 0.869  0.2607 0.869 0.869  0.1738 0.869 0.869  0.08690000000000001 0.869 0.869  0.869 0.08690000000000001 0.869  0.869 0.1738 0.869  0.869 0.2607 0.869  0.869 0.3476 0.869  0.869 0.4345 0.869  0.869 0.5214 0.869  0.869 0.6083 0.869  0.869 0.6952 0.869  0.869 0.7821 0.869  0.87 0.87 0.783  0.87 0.87 0.696  0.87 0.87 0.609  0.87 0.87 0.522  0.87 0.87 0.435  0.87 0.87 0.348  0.87 0.87 0.261  0.87 0.87 0.174  0.87 0.87 0.08699999999999999  0.87 0.08699999999999999 0.87  0.87 0.174 0.87  0.87 0.261 0.87  0.87 0.348 0.87  0.87 0.435 0.87  0.87 0.522 0.87  0.87 0.609 0.87  0.87 0.696 0.87  0.87 0.783 0.87  0.783 0.87 0.87  0.696 0.87 0.87  0.609 0.87 0.87  0.522 0.87 0.87  0.435 0.87 0.87  0.348 0.87 0.87  0.261 0.87 0.87  0.174 0.87 0.87  0.08699999999999999 0.87 0.87  0.88 0.88 0.8  0.88 0.88 0.72  0.88 0.88 0.64  0.88 0.88 0.5600000000000001  0.88 0.88 0.48  0.88 0.88 0.4  0.88 0.88 0.32  0.88 0.88 0.24  0.88 0.88 0.16  0.88 0.88 0.08  0.88 0.08 0.88  0.88 0.16 0.88  0.88 0.24 0.88  0.88 0.32 0.88  0.88 0.4 0.88  0.88 0.48 0.88  0.88 0.5600000000000001 0.88  0.88 0.64 0.88  0.88 0.72 0.88  0.88 0.8 0.88  0.8 0.88 0.88  0.72 0.88 0.88  0.64 0.88 0.88  0.5600000000000001 0.88 0.88  0.48 0.88 0.88  0.4 0.88 0.88  0.32 0.88 0.88  0.24 0.88 0.88  0.16 0.88 0.88  0.08 0.88 0.88  1 1 0.916666666667  1 1 0.833333333333  1 1 0.75  1 1 0.666666666667  1 1 0.583333333333  1 1 0.5  1 1 0.416666666667  1 1 0.333333333333  1 1 0.25  1 1 0.166666666667  1 1 0.08333333333329999  1 0.08333333333329999 1  1 0.166666666667 1  1 0.25 1  1 0.333333333333 1  1 0.416666666667 1  1 0.5 1  1 0.583333333333 1  1 0.666666666667 1  1 0.75 1  1 0.833333333333 1  1 0.916666666667 1  0.916666666667 1 1  0.833333333333 1 1  0.75 1 1  0.666666666667 1 1  0.583333333333 1 1  0.5 1 1  0.416666666667 1 1  0.333333333333 1 1  0.25 1 1  0.166666666667 1 1  0.08333333333329999 1 1  0.0818431430354 0 0  0.163686286071 0 0  0.245529429106 0 0  0.327372572141 0 0  0.409215715177 0 0  0.491048508718 0 0  0.570784252204 0 0  0.639190780965 0 0  0.692199131714 0 0  0.733174420338 0 0  0.764849785902 0 0  0.789330208318 0 0  0.808255429764 0 0  0.82286036889 0 0  0.83414216359 0 0  0.8429475661 0 0  0.849642266869 0 0  0.854823227816 0 0  0.858912533806 0 0  0.862138334292 0 0  0.864561547116 0 0  0.86642942377 0 0  0.8678799847649999 0 0  0.869 0 0.00112527064722  0.869 0 0.00258423731708  0.869 0 0.00444876595426  0.869 0 0.00686763469359  0.869 0 0.00998920599248  0.869 0 0.0140325021056  0.869 0 0.0192561059001  0.869 0 0.0260213542585  0.869 0 0.0349681234368  0.869 0 0.0462055009382  0.869 0 0.0608385919418  0.869 0 0.07966887232729999  0.869 0 0.104137811445  0.869 0 0.135807388166  0.869 0 0.176740395954  0.869 0 0.229714648999  0.869 0 0.298222007327  0.869 0 0.377953315709  0.869 0 0.459787389065  0.869 0 0.541629911252  0.869 0 0.6234724334390001  0.869 0 0.705314955626  0.869 0 0.7871574778130001  0.787156854138 0 0.869  0.705313708276 0 0.869  0.623470562414 0 0.869  0.541627416552 0 0.869  0.45978427069 0 0.869  0.377951474948 0 0.869  0.298216417347 0 0.869  0.229722564617 0 0.869  0.176799559879 0 0.869  0.135825593559 0 0.869  0.104150224347 0 0.869  0.07966979781529999 0 0.869  0.0607445747222 0 0.869  0.0461396343706 0 0.869  0.0348578387276 0 0.869  0.0260524355657 0 0.869  0.019357734313 0 0.869  0.0141767729878 0 0.869  0.0100874667111 0 0.869  0.00686166602571 0 0.869  0.004438453072 0 0.869  0.00257057632835 0 0.869  0.0011200152736 0 0.869  0 0 0.0818431430354  0 0 0.163686286071  0 0 0.245529429106  0 0 0.327372572141  0 0 0.409215715177  0 0 0.491048508718  0 0 0.570784252204  0 0 0.639190780965  0 0 0.692199131714  0 0 0.733174420338  0 0 0.764849785902  0 0 0.789330208318  0 0 0.808255429764  0 0 0.82286036889  0 0 0.83414216359  0 0 0.8429475661  0 0 0.849642266869  0 0 0.854823227816  0 0 0.858912533806  0 0 0.862138334292  0 0 0.864561547116  0 0 0.86642942377  0 0 0.8678799847649999  0 0.867874729353 0  0 0.866415762683 0  0 0.864551234046 0  0 0.862132365306 0  0 0.859010794008 0  0 0.854967497894 0  0 0.8497438941 0  0 0.842978645741 0  0 0.834031876563 0  0 0.822794499062 0  0 0.808161408058 0  0 0.789331127673 0  0 0.764862188555 0  0 0.733192611834 0  0 0.692259604046 0  0 0.639285351001 0  0 0.570777992673 0  0 0.491046684291 0  0 0.409212610935 0  0 0.327370088748 0  0 0.245527566561 0  0 0.163685044374 0  0 0.081842522187 0  0.00112527064722 0.869 0  0.00258423731708 0.869 0  0.00444876595426 0.869 0  0.00686763469359 0.869 0  0.00998920599248 0.869 0  0.0140325021056 0.869 0  0.0192561059001 0.869 0  0.0260213542585 0.869 0  0.0349681234368 0.869 0  0.0462055009382 0.869 0  0.0608385919418 0.869 0  0.07966887232729999 0.869 0  0.104137811445 0.869 0  0.135807388166 0.869 0  0.176740395954 0.869 0  0.229714648999 0.869 0  0.298222007327 0.869 0  0.377953315709 0.869 0  0.459787389065 0.869 0  0.541629911252 0.869 0  0.6234724334390001 0.869 0  0.705314955626 0.869 0  0.7871574778130001 0.869 0  0.869 0.787156854138 0  0.869 0.705313708276 0  0.869 0.623470562414 0  0.869 0.541627416552 0  0.869 0.45978427069 0  0.869 0.377951474948 0  0.869 0.298216417347 0  0.869 0.229722564617 0  0.869 0.176799559879 0  0.869 0.135825593559 0  0.869 0.104150224347 0  0.869 0.07966979781529999 0  0.869 0.0607445747222 0  0.869 0.0461396343706 0  0.869 0.0348578387276 0  0.869 0.0260524355657 0  0.869 0.019357734313 0  0.869 0.0141767729878 0  0.869 0.0100874667111 0  0.869 0.00686166602571 0  0.869 0.004438453072 0  0.869 0.00257057632835 0  0.869 0.0011200152736 0  0 0.869 0.787156854138  0 0.869 0.705313708276  0 0.869 0.623470562414  0 0.869 0.541627416552  0 0.869 0.45978427069  0 0.869 0.377951474948  0 0.869 0.298216417347  0 0.869 0.229722564617  0 0.869 0.176799559879  0 0.869 0.135825593559  0 0.869 0.104150224347  0 0.869 0.07966979781529999  0 0.869 0.0607445747222  0 0.869 0.0461396343706  0 0.869 0.0348578387276  0 0.869 0.0260524355657  0 0.869 0.019357734313  0 0.869 0.0141767729878  0 0.869 0.0100874667111  0 0.869 0.00686166602571  0 0.869 0.004438453072  0 0.869 0.00257057632835  0 0.869 0.0011200152736  0 0.00112527064722 0.869  0 0.00258423731708 0.869  0 0.00444876595426 0.869  0 0.00686763469359 0.869  0 0.00998920599248 0.869  0 0.0140325021056 0.869  0 0.0192561059001 0.869  0 0.0260213542585 0.869  0 0.0349681234368 0.869  0 0.0462055009382 0.869  0 0.0608385919418 0.869  0 0.07966887232729999 0.869  0 0.104137811445 0.869  0 0.135807388166 0.869  0 0.176740395954 0.869  0 0.229714648999 0.869  0 0.298222007327 0.869  0 0.377953315709 0.869  0 0.459787389065 0.869  0 0.541629911252 0.869  0 0.6234724334390001 0.869  0 0.705314955626 0.869  0 0.7871574778130001 0.869  0.788117352729 0.87 0  0.706234705459 0.87 0  0.624352058188 0.87 0  0.5424694109180001 0.87 0  0.460586763647 0.87 0  0.378713476972 0.87 0  0.29885623705 0.87 0  0.230175720323 0.87 0  0.177131431564 0.87 0  0.13606560349 0.87 0  0.10432260965 0.87 0  0.0797957507811 0.87 0  0.0608339184673 0.87 0  0.0462024540747 0.87 0  0.0349015575904 0.87 0  0.0260825508893 0.87 0  0.0193780225289 0.87 0  0.0141904040587 0.87 0  0.01009685069 0.87 0  0.00686694609826 0.87 0  0.00444157215335 0.87 0  0.0025721952556 0.87 0  0.00112063665548 0.87 0  0.87 0.0011258876747 0  0.87 0.00258587785719 0  0.87 0.00445188966212 0  0.87 0.00687297259214 0  0.87 0.00999779282392 0  0.87 0.0140458262875 0  0.87 0.01927620658 0  0.87 0.0260510437335 0  0.87 0.0350118286898 0  0.87 0.0462679272923 0  0.87 0.0609271814704 0  0.87 0.0797939030295 0  0.87 0.104312198601 0  0.87 0.136051250506 0  0.87 0.177077271963 0  0.87 0.230181664163 0  0.87 0.298860884636 0  0.87 0.378715118522 0  0.87 0.460589208782 0  0.87 0.542471367026 0  0.87 0.624353525269 0  0.87 0.706235683513 0  0.87 0.788117841756 0  0.87 0 0.788117352729  0.87 0 0.706234705459  0.87 0 0.624352058188  0.87 0 0.5424694109180001  0.87 0 0.460586763647  0.87 0 0.378713476972  0.87 0 0.29885623705  0.87 0 0.230175720323  0.87 0 0.177131431564  0.87 0 0.13606560349  0.87 0 0.10432260965  0.87 0 0.0797957507811  0.87 0 0.0608339184673  0.87 0 0.0462024540747  0.87 0 0.0349015575904  0.87 0 0.0260825508893  0.87 0 0.0193780225289  0.87 0 0.0141904040587  0.87 0 0.01009685069  0.87 0 0.00686694609826  0.87 0 0.00444157215335  0.87 0 0.0025721952556  0.87 0 0.00112063665548  0.0011258876747 0 0.87  0.00258587785719 0 0.87  0.00445188966212 0 0.87  0.00687297259214 0 0.87  0.00999779282392 0 0.87  0.0140458262875 0 0.87  0.01927620658 0 0.87  0.0260510437335 0 0.87  0.0350118286898 0 0.87  0.0462679272923 0 0.87  0.0609271814704 0 0.87  0.0797939030295 0 0.87  0.104312198601 0 0.87  0.136051250506 0 0.87  0.177077271963 0 0.87  0.230181664163 0 0.87  0.298860884636 0 0.87  0.378715118522 0 0.87  0.460589208782 0 0.87  0.542471367026 0 0.87  0.624353525269 0 0.87  0.706235683513 0 0.87  0.788117841756 0 0.87  0 0.87 0.0011258876747  0 0.87 0.00258587785719  0 0.87 0.00445188966212  0 0.87 0.00687297259214  0 0.87 0.00999779282392  0 0.87 0.0140458262875  0 0.87 0.01927620658  0 0.87 0.0260510437335  0 0.87 0.0350118286898  0 0.87 0.0462679272923  0 0.87 0.0609271814704  0 0.87 0.079793903
[...]
<PointData  Scalars="f_83"> 
<DataArray  type="Float64"  Name="f_83"  format="ascii">1.0000000019744926e-01  4.9991603585269231e-02  1.9531914452968303e-02  4.9958689603783100e-02  4.9992058112741718e-02  3.0388139357636297e-02  9.2652185287241760e-03  2.6064093967041693e-02  4.7778501266226743e-02  2.8038058065823056e-02  4.7781872904011272e-02  1.7457311677691538e-02  4.7741642495601699e-02  7.6066261203139880e-03  2.3887379035573419e-02  2.7095873470726783e-02  7.3516168688873198e-03  2.7116622989273628e-02  2.8880883248858292e-03  2.7030556134910379e-02  6.0924452318001526e-04  6.5744474019486833e-03  9.1812811535657259e-06  8.6039980495610438e-05  1.8214515934428957e-05  5.2553126316303354e-05  5.3068631326163186e-06  -8.4877242114204208e-05  5.0870929536905147e-04  4.3882413473562074e-02  3.7798187363084539e-02  3.6734101762427147e-02  3.3173899619278246e-02  3.7623757780028071e-02  3.2774835319940882e-02  3.3392326950159389e-02  3.4351805044328963e-02  3.3242350184441001e-02  4.2574751584336532e-02  3.6181887562420072e-02  3.5916838652581481e-02  3.1273542865125389e-02  3.5281287742574816e-02  3.3165031378053475e-02  3.1832519842245124e-02  3.3506205110439016e-02  3.0868251897797853e-02  3.7450563924144052e-02  3.2853293067106729e-02  3.0704525837464872e-02  3.3998149488522936e-02  3.5223589268135624e-02  3.2184787940061584e-02  3.7149279433115426e-02  3.7042843482503987e-02  4.2877259561118278e-02  4.1520096225586341e-02  3.5460432676523296e-02  3.4412392799616151e-02  3.0922818925518708e-02  3.5232697422095144e-02  3.0631193654673070e-02  3.1138121815872371e-02  3.2178156407173142e-02  3.1180098066731242e-02  3.5163649084294757e-02  3.0655708925218916e-02  2.8571855272499901e-02  3.1811171722603566e-02  3.2895165783032518e-02  2.9966455393299229e-02  3.4729162125089287e-02  3.4709136116592779e-02  4.0399332311179474e-02  4.0180826496647490e-02  3.3870182097475394e-02  3.3632711227580200e-02  2.9149292572173458e-02  3.2988396860136021e-02  3.0983828313272774e-02  2.9614022938373449e-02  3.1295640106808138e-02  2.8612555434991211e-02  1.7758358195357545e-02  1.3753995616169232e-02  1.3217357393686189e-02  1.1554521497272052e-02  1.1945785656821251e-02  1.3784058800410021e-02  1.0728048832521700e-02  1.0730817145249561e-02  1.2705135479054684e-02  1.3408525541847452e-02  1.4962972398823901e-02  1.0747804868086980e-02  9.4722465707714702e-03  1.1109777243991993e-02  1.2700562226903755e-02  1.0561948101733000e-02  1.0923541683840696e-02  1.1975978362908427e-02  1.3144389467514816e-02  1.3944132708259060e-02  1.5813910394229413e-02  1.2025896428709210e-02  1.1616095188123317e-02  1.1817908669200784e-02  1.0853517565523375e-02  1.2739395586553943e-02  1.0472736888302565e-02  9.4096235410972943e-03  1.1034869054633190e-02  7.6349181775477145e-03  -1.5485812855451506e-05  -1.6641009283228721e-04  2.5887504572065127e-04  5.3417040769859010e-04  -4.3191406128468624e-05  -1.4869248887481148e-05  -8.9704090570392732e-05  -8.7164821349394606e-05  -1.4412381348670057e-04  -1.1062221832171837e-04  -2.1267829997109820e-04  2.5040127671637164e-04  -2.2929865984623287e-04  -2.0104361940911149e-04  9.8732991486082095e-05  5.1069450577224680e-04  4.5235858703957621e-05  4.6105823265387062e-05  6.7552051278729018e-05  4.1615528692724550e-04  1.2622634861850367e-04  -6.0270328539750869e-05  -4.9958285887637469e-05  -1.1604376785177174e-04  1.0086527010860771e-04  -5.6172409344421495e-05  2.7920832837266996e-04  2.5302708331321105e-04  6.0205114001589599e-05  -2.9733065692959073e-05  -1.9984268214498589e-04  -1.1104141850533630e-04  5.5718767760234132e-04  1.0000000080490215e-01  9.9999990185206389e-02  1.0000003717665638e-01  9.9999855909603877e-02  1.0000115767383667e-01  9.9993948914710445e-02  1.0000104931717965e-01  1.0000103272675540e-01  1.0000180643441639e-01  9.9993502734509104e-02  9.9995145281641121e-02  9.9996804362403213e-02  9.9981253357394065e-02  9.9651251427116450e-02  9.7517396823313118e-02  9.2734167800552478e-02  8.5811824570850209e-02  7.8338024079512042e-02  7.1163477692696320e-02  6.4782218726125190e-02  5.9691461528913893e-02  5.5651055864641974e-02  5.2465185718021320e-02  4.9991954191831840e-02  4.9992961022275469e-02  4.9995443917005389e-02  5.0005304636482978e-02  5.0012680919412182e-02  5.0018882447515282e-02  4.9964963211548204e-02  4.9992817651786869e-02  4.9992299833325003e-02  4.9973742169104524e-02  4.9478048746802124e-02  4.8542241064586843e-02  4.7602469225072531e-02  4.6419143437778067e-02  4.7217487415970268e-02  5.7489898397350192e-02  5.6178306233669949e-02  5.7681348253321475e-02  5.9080891731067592e-02  5.2457912801704865e-02  5.5289395245401246e-02  5.8870234963200721e-02  6.7380135236021210e-02  7.0050786548339947e-02  4.5598377701736297e-02  5.5760109298590890e-02  5.8140254654770858e-02  5.7953533220100571e-02  5.4254733201066087e-02  5.8554438707114506e-02  4.6881960522247176e-02  5.0587870204356358e-02  5.1464607189862732e-02  4.7786966521554577e-02  4.8848947687920974e-02  4.9530792175996145e-02  4.9756362121964520e-02  4.9849784738514237e-02  4.9936726221893477e-02  4.9963368624364131e-02  4.9985782642198891e-02  4.9974859142313678e-02  4.9971929174562425e-02  4.9961571474008919e-02  4.9959310803144447e-02  4.9958571868751966e-02  1.0000000049573933e-01  9.9999995442572681e-02  1.0000001285152833e-01  9.9999834283291081e-02  1.0000097611398480e-01  9.9997573690935190e-02  9.9999435667046999e-02  1.0000852094143028e-01  9.9996946483210794e-02  9.9990761557599117e-02  9.9996303312082369e-02  1.0000494171590417e-01  9.9971953009483638e-02  9.9623112290972871e-02  9.7472463297544915e-02  9.2712719191950510e-02  8.5863948147382546e-02  7.8371709109880325e-02  7.1197692080825006e-02  6.4805141079986389e-02  5.9699410485317607e-02  5.5642088111649286e-02  5.2442795384462643e-02  5.2483500633344712e-02  5.5700002233556770e-02  5.9752892917030995e-02  6.4851664579264390e-02  7.1052869771187174e-02  7.8203494150985639e-02  8.5812399950666376e-02  9.2729142220194780e-02  9.7660992992001011e-02  9.9709653909949972e-02  1.0001192868034377e-01  9.9999274195940041e-02  9.9988523754787131e-02  9.9963168581358369e-02  1.0000885111201295e-01  1.0001489176360444e-01  1.0001031994193654e-01  9.9996825779245985e-02  1.0000050341134586e-01  9.9999867463726341e-02  1.0000001589732306e-01  9.9999998333264811e-02  9.9999999856720187e-02  4.9992010101068081e-02  4.9992272853243196e-02  4.9992594261169275e-02  5.0000517918512864e-02  5.0005010108575866e-02  5.0009439341043058e-02  4.9939342009676570e-02  4.9967740440468845e-02  4.9869311088589260e-02  4.9908417062036109e-02  4.9543918788699716e-02  4.8982167174878646e-02  4.8257295578586094e-02  4.6922746693969876e-02  4.7012449618234753e-02  5.6130333224802813e-02  5.8071180149700870e-02  5.8050283532563487e-02  5.5195673723268078e-02  5.7991867255349168e-02  5.4964570146591778e-02  6.0060583298812434e-02  5.8832531689055306e-02  6.3106470961208180e-02  4.6024129950148006e-02  5.5488807367389918e-02  5.2988429684285070e-02  5.1312054995191883e-02  5.8062885756927571e-02  5.6295822558000225e-02  4.6795139064207708e-02  4.5231244941105989e-02  4.7763958029780118e-02  4.7772757250760259e-02  4.9902699262893098e-02  4.9179318016057461e-02  4.9681707803442041e-02  4.9901705266956808e-02  5.0008414836834630e-02  4.9988346416511696e-02  4.9991298422502821e-02  5.0004677610224396e-02  5.0002415859046648e-02  4.9999988962200953e-02  4.9995251642094472e-02  4.9992165387432071e-02  6.2732806652373005e-02  5.8269097214597963e-02  5.5157607777614991e-02  5.6619925828112511e-02  5.5512479430113650e-02  5.6822274303176164e-02  6.0173794796569972e-02  5.6168560024513620e-02  4.7744299090536402e-02  4.7442193641852551e-02  4.9266678873282198e-02  4.8535994675193213e-02  4.9318572853785290e-02  4.9720694023977004e-02  4.9805858007274828e-02  4.9853534759103910e-02  4.9904797157886947e-02  4.9958926376492831e-02  4.9980490169769756e-02  4.9989459148547695e-02  4.9988534381638847e-02  4.9991084611249577e-02  4.9992100909627288e-02  4.9958756761892889e-02  4.9959162711392717e-02  4.9960276555678959e-02  4.9962854348204459e-02  4.9967071704349872e-02  4.9957602160266630e-02  4.9927287159321876e-02  4.9838834487493579e-02  4.9705778222944925e-02  4.9662853537735460e-02  4.9612132702368639e-02  4.9317569517496392e-02  4.8216880732955034e-02  4.5865028174043074e-02  4.5752494187675553e-02  4.7050551998220141e-02  5.8791274338978648e-02  5.7408813356143819e-02  6.1045514557795347e-02  5.5912229753318908e-02  5.6929183233319844e-02  5.8534412909860098e-02  5.8372385612964685e-02  5.5844237911985367e-02  5.6992067695259212e-02  5.2010131171870144e-02  5.5177288400087045e-02  5.2253316500334115e-02  5.4786774237163709e-02  5.5247920013961699e-02  5.3518584631386076e-02  4.4829865659503490e-02  4.4895267476715219e-02  4.6256556032507487e-02  4.6954418260445524e-02  4.7441582072879525e-02  4.7737784756896100e-02  4.7701157452973847e-02  4.7767263377934202e-02  4.7722957050611317e-02  4.7790423187386737e-02  4.7789138748201461e-02  4.7786359529843621e-02  4.7773972444658530e-02  4.7776806508140354e-02  4.7777798353235361e-02  4.7781894550573696e-02  4.7781881292526571e-02  4.7784875619187483e-02  4.7789329978051971e-02  4.7793447995616814e-02  4.7790382676049556e-02  4.7775736115356369e-02  4.7809270774791364e-02  4.7718271736157086e-02  4.7517741950821507e-02  4.7124380491077832e-02  4.7782536515345607e-02  4.5743216462542799e-02  4.5657558642433968e-02  4.3136642384252272e-02  4.4889352619442838e-02  5.3140201082375292e-02  5.4967242177274118e-02  4.8469346525914843e-02  5.0410522321170423e-02  5.2508009058108998e-02  4.3499795017474398e-02  5.9879355926995899e-02  6.3780514064212687e-02  5.5820675678631818e-02  5.2329859486222395e-02  4.9842020535848255e-02  5.5895077611632406e-02  5.4468891084233084e-02  5.3429135730810547e-02  5.5215217643839680e-02  4.5134429347274921e-02  4.4406479551654471e-02  4.5603307895444527e-02  4.6491850205059970e-02  4.7332255871814652e-02  4.7756441854932059e-02  4.7776071152203198e-02  4.7766355255540412e-02  4.7747892235480517e-02  4.7804221764130655e-02  4.7800649532707379e-02  4.7794735161334888e-02  4.7781762966492045e-02  4.7782016637215090e-02  4.7781583001959650e-02  4.7740956780218134e-02  4.7740507578141751e-02  4.7742982159582462e-02  4.7752140257506827e-02  4.7760269640361085e-02  4.7781030543669195e-02  4.7741360629456976e-02  4.7719260625287849e-02  4.7642267025357746e-02  4.7566879226184966e-02  4.7382989077965787e-02  4.6769938748025139e-02  4.5902429873809970e-02  4.9381224846738063e-02  4.8462408722013135e-02  4.4670065461655827e-02  5.5808526710127586e-02  5.1291057786304835e-02  5.4888578191584735e-02  5.5273261150709602e-02  5.2655463841069068e-02  4.3142335459137517e-02  6.6404577369647805e-02  4.7778326579441158e-02  4.7774543469250141e-02  4.7770578362054124e-02  4.7775238443584334e-02  4.7767089952495401e-02  4.7754296027115999e-02  4.7689626813538673e-02  4.7649431298368385e-02  4.7641570889185109e-02  4.7589642279841679e-02  4.7214258342134843e-02  4.6478291286511271e-02  4.7133574678184027e-02  4.5393632007710093e-02  4.5702442528588551e-02  5.3829872220789013e-02  5.7661782903678939e-02  5.3610756349133593e-02  5.2588504850806225e-02  5.3929837918902164e-02  5.2250925449746112e-02  5.5305915882825261e-02  5.9441136813039773e-02  5.5283656638003567e-02  5.5423929598698463e-02  5.4217418208666969e-02  5.2892591091262799e-02  5.7769124049680508e-02  5.4225850146084054e-02  5.5830520526284656e-02  4.4820881167512670e-02  4.3670850760512428e-02  4.3893187426074155e-02  4.6071409320132282e-02  4.7198371588187890e-02  4.7500747254845925e-02  4.7495664410310973e-02  4.7520977006161348e-02  4.7616172103804519e-02  4.7694293801192701e-02  4.7738846691788440e-02  4.7753042147001372e-02  4.7748334160261578e-02  4.7740966384362780e-02  4.7738315608744794e-02  4.7740976902351358e-02  3.3109827497591192e-02  3.8129670705932206e-02  4.2139015668066299e-02  4.5307239777468637e-02  2.5891057811387848e-02  2.5034666964399349e-02  2.0959890419996605e-02  2.5594379882131993e-02  2.1826758666451136e-02  2.0941937136967011e-02  2.5838813245156977e-02  2.6643761552950548e-02  2.3132580245942377e-02  2.6479468997728382e-02  2.7263363950660501e-02  2.7553525728491270e-02  2.7288544378928085e-02  2.7031270061488540e-02  2.7320980914125558e-02  2.7038325630521148e-02  2.7027130414401614e-02  2.6970302317725715e-02  2.7043850761568088e-02  2.7071850722790673e-02  2.7101221663685979e-02  2.7042164089045310e-02  2.7116515659332704e-02  2.7299718618784660e-02  2.7016185423928404e-02  2.7435540985968284e-02  2.8071895904987678e-02  2.6843961696575654e-02  2.5954572456222062e-02  2.2687401576969444e-02  2.5636003565171168e-02  2.0197377688515660e-02  2.2578865469924332e-02  1.9843744872331950e-02  2.3429360077638801e-02  2.1228710355387932e-02  1.7597002087867811e-02  2.7531703270555045e-02  4.5314559045010763e-02  4.2142299502169543e-02  3.8121963657762055e-02  3.3108359365971403e-02  2.7712815283049766e-02  2.3637224604787881e-02  2.1115882875385659e-02  2.2453897916053317e-02  2.3523427683865901e-02  2.1073483451762978e-02  2.4932186585742103e-02  3.2452536044939133e-02  2.4077416607213610e-02  2.5776903367881833e-02  2.7205760692014434e-02  2.7473779030723840e-02  2.7489459933686511e-02  2.6999557359030160e-02  2.7343534673130224e-02  2.7070492987519436e-02  2.7140477630646798e-02  2.7081099168551975e-02  2.7060148329112212e-02  2.6966202902541474e-02  2.6922892116185589e-02  2.6962802001822512e-02  2.7044802158918690e-02  2.7286799660085390e-02  2.6934194794420562e-02  2.7441364852416092e-02  2.7401404821846609e-02  2.7531592537938947e-02  2.9502804616944319e-02  2.8476970356685512e-02  2.2290399040416128e-02  2.7286289922681638e-02  2.0238399053618818e-02  2.2979265666719352e-02  2.5772889757011825e-02  2.0573837849754240e-02  1.7674365314272751e-02  2.9871832704062316e-02  4.5268422951856978e-02  4.2087969082962043e-02  3.8071955501218134e-02  3.3053979284780682e-02  2.7051601015353772e-02  2.6988822517581616e-02  2.7007557300393354e-02  2.7054801392154246e-02  2.7143009538047911e-02  2.7527356414267384e-02  2.7617386858408390e-02  2.6965259514850792e-02  2.7140529748272892e-02  2.6407715976506266e-02  2.4680575832842430e-02  3.0190314412466546e-02  3.2209818467474470e-02  2.0408714751207237e-02  2.2396694352324283e-02  2.6027729735644461e-02  2.1606567219135373e-02  2.4450777648694768e-02  2.7035053643306453e-02  2.4980841617984625e-02  2.2951777414523127e-02  2.6014826592756991e-02  2.1774286344634755e-02  2.4072403868948457e-02  2.1093105157703282e-02  2.4739122735947593e-02  2.2108153090163191e-02  2.3839770162457009e-02  2.5118920180048653e-02  2.6384778503866280e-02  2.8093855968985192e-02  2.7691337688067225e-02  2.6985566115676037e-02  2.7283410098010170e-02  2.6890731078780070e-02  2.6949496881392389e-02  2.6928847241535124e-02  2.6997246714452507e-02  -7.6553946540276860e-06  -1.2341842310505641e-06  -9.4494349851434745e-06  3.1934185845083408e-04  2.3764654536682019e-03  6.9297085821100057e-03  1.3161573243229729e-02  2.0054941124149770e-02  -1.1698995123629824e-04  -3.2093175058412367e-03  -7.3337437216526181e-03  -4.3029664304703730e-03  -3.5297955838275454e-03  -4.5285685416045635e-03  -3.3101523782381342e-03  -5.3831285234267681e-03  1.9644905935394890e-03  2.0986847056094255e-03  -4.1845313086955880e-05  -1.6740270722599094e-04  1.1932431931910684e-05  7.0372488709818160e-06  -8.5138320028902139e-05  1.2463856313865669e-06  8.7003427390339280e-04  3.0842922969062151e-03  -3.5240742417817156e-03  -4.6764555773259921e-03  -3.1767793438145955e-03  -3.5249964894062649e-03  -5.3430824270016544e-03  -3.1138306492871932e-03  -4.9436341525668408e-03  2.9255649086659945e-04  2.0253198217316529e-02  1.3156767922431549e-02  6.8252593163689729e-03  2.3294510526662266e-03  3.8519598001713224e-04  8.6738618385231224e-06  -6.5049146167924669e-06  -6.5208174159654258e-06  -2.5752385654254035e-04  -2.3572427270863077e-03  -7.2986370424418662e-03  -3.8329168176956443e-03  -2.9809286522728493e-03  -4.5113063697693658e-03  -3.4308204330227524e-03  -4.9922825275149369e-03  8.2832382868582423e-04  4.9920034888454386e-04  -4.1908808915733495e-05  -9.6149146570719161e-05  -1.7650060184839570e-05  1.0412099139397344e-05  -1.0405266802342248e-04  -1.5188251291644371e-04  1.7167437130420323e-03  2.6697199406319643e-03  -5.4494938994666987e-03  -3.1363106275867441e-03  -4.2334891059238808e-03  -2.8823255819958472e-03  -5.2816793390715313e-03  -3.3435175956752538e-03  -3.7114396251958564e-03  -9.5653567210376379e-05  2.0155542644822808e-02  1.3275361118331316e-02  6.9703620452528075e-03  2.4838317574289266e-03  3.6429139797068265e-04  1.8642367297740547e-05  -4.9844282348476367e-06  -6.0938654425241050e-06  -4.4540064711871192e-06  -9.8966663522008619e-05  -2.3303019216751246e-07  4.9036420181014994e-04  8.8304091547348692e-04  -1.7202891567536522e-03  -3.3282889058154808e-03  -4.5761646422029095e-03  -3.7472680835136593e-03  -6.4293243139553063e-03  -3.8638803236715831e-03  -4.7688130420268987e-03  -1.5137205086005589e-03  -1.3395152209701739e-03  -4.5817934232465409e-03  -5.4474167722865291e-03  -3.4626695987399702e-03  -4.3563598062266720e-03  -4.6117693050112827e-03  -3.3913340846541368e-03  -5.6412088738170447e-03  1.5546015344214516e-03  4.9380510497388109e-04  -1.7808035734360848e-04  -5.0847428669921340e-05  3.2298460510950162e-06  9.8918008030506099e-02  9.5252163777724996e-02  8.8910003529418094e-02  8.1495755750286336e-02  7.3393147026712013e-02  6.6913484192319059e-02  6.1831735834788085e-02  5.7078945635223276e-02  5.3183207265524265e-02  9.9896091557705846e-02  1.0001850746542246e-01  1.0000191449161759e-01  5.3851629226760588e-02  1.0000149907597970e-01  5.4839300419796205e-02  9.9988745610049279e-02  5.6503085209801844e-02  5.7967203604579701e-02  9.9997170688083004e-02  6.0735265930108792e-02  6.3772380176902996e-02  1.0000638104815533e-01  6.7338911040518173e-02  7.3134885866843677e-02  1.0000795612496935e-01  7.8102129800837333e-02  8.3726516948118654e-02  9.9998020156120790e-02  9.0817014872535212e-02  1.0000021620433620e-01  9.7240629474796850e-02  1.0535052935101548e-01  9.9999949732326329e-02  1.0450332080168234e-01  1.0000001033004013e-01  1.0564148168802523e-01  1.1086461104551514e-01  9.9999996896525223e-02  1.0855542126950619e-01  1.0611894458913078e-01  1.1124813385069415e-01  1.1007051874560378e-01  1.1151439847918058e-01  1.1362728290657959e-01  1.1128659494279805e-01  1.1041921377261488e-01  1.1108068028623280e-01  9.9999176319949826e-02  1.0000512632532463e-01  9.9991307037267829e-02  9.3993598443492518e-02  1.0000265540669750e-01  1.0000763410990536e-01  1.0001150426275182e-01  9.9913362526030738e-02  9.8875131401886029e-02  9.5230803506220998e-02  8.8896856402525246e-02  8.1276933913550620e-02  7.3345459996589243e-02  6.6939928190908188e-02  6.1221780101529288e-02  5.3210622819492709e-02  9.9999998767177370e-02  1.0976386371749923e-01  1.0000001044077177e-01  1.1092517059040859e-01  9.9999940229492393e-02  1.0000036400002095e-01  9.9998839267481002e-02  1.0836114390286519e-01  1.0001453762748784e-01  1.0935164022281831e-01  1.0183402882542354e-01  8.9298504856887562e-02  8.3374881180158095e-02  7.7191573548188785e-02  7.2027856123776560e-02  6.7566898321937408e-02  6.3920291507834209e-02  6.0846207851850735e-02  5.8582485151565590e-02  5.6572823533077424e-02  5.5638297912199014e-02  5.3687733046636071e-02  5.8783422955789408e-02  5.7069679264049961e-02  6.1407998371146293e-02  6.5716622582191658e-02  6.9228036691835526e-02  7.3682359718907700e-02  7.8192879111017993e-02  8.4526119992625326e-02  9.0636175609867281e-02  9.5634861303547647e-02  1.0033785848709632e-01  9.9481157225746825e-02  9.8428844043000119e-02  9.9998480035829507e-02  1.0000016144230719e-01  9.9999971569944238e-02  9.9089534292128412e-02  9.8229660688546744e-02  1.0000000246969892e-01  7.4733304797515679e-02  8.1565713514708968e-02  9.0498224511980627e-02  9.601