<?xml version="1.0"?>
<VTKFile type="UnstructuredGrid"  version="0.1"  >
<UnstructuredGrid>
<Piece  NumberOfPoints="5032" NumberOfCells="26847">
<Points>
<DataArray  type="Float64"  NumberOfComponents="3"  format="ascii">0.88 -0.88 0.88  0.88 -0.88 -0.88  0.88 0.88 -0.88  0.88 0.88 0.88  -0.88 0.88 0.88  -0.88 -0.88 0.88  -0.88 -0.88 -0.88  -0.88 0.88 -0.88  0.87 -0.87 0.87  0.87 0.87 0.87  -0.87 0.87 0.87  -0.87 -0.87 0.87  0.87 0.87 -0.87  0.87 -0.87 -0.87  -0.87 -0.87 -0.87  -0.87 0.87 -0.87  1 -1 1  1 1 1  -1 1 1  -1 -1 1  1 1 -1  1 -1 -1  -1 -1 -1  -1 1 -1  0.869 -0.869 0.869  0.869 0.869 0.869  -0.869 -0.869 0.869  -0.869 0.869 0.869  0.869 0.869 -0.869  0.869 -0.869 -0.869  -0.869 0.869 -0.869  -0.869 -0.869 -0.869  0.88 -0.88 0.72  0.88 -0.88 0.5600000000000001  0.88 -0.88 0.4  0.88 -0.88 0.24  0.88 -0.88 0.08  0.88 -0.88 -0.08  0.88 -0.88 -0.24  0.88 -0.88 -0.4  0.88 -0.88 -0.5600000000000001  0.88 -0.88 -0.72  0.88 0.72 -0.88  0.88 0.5600000000000001 -0.88  0.88 0.4 -0.88  0.88 0.24 -0.88  0.88 0.08 -0.88  0.88 -0.08 -0.88  0.88 -0.24 -0.88  0.88 -0.4 -0.88  0.88 -0.5600000000000001 -0.88  0.88 -0.72 -0.88  0.88 0.88 0.72  0.88 0.88 0.5600000000000001  0.88 0.88 0.4  0.88 0.88 0.24  0.88 0.88 0.08  0.88 0.88 -0.08  0.88 0.88 -0.24  0.88 0.88 -0.4  0.88 0.88 -0.5600000000000001  0.88 0.88 -0.72  0.88 -0.72 0.88  0.88 -0.5600000000000001 0.88  0.88 -0.4 0.88  0.88 -0.24 0.88  0.88 -0.08 0.88  0.88 0.08 0.88  0.88 0.24 0.88  0.88 0.4 0.88  0.88 0.5600000000000001 0.88  0.88 0.72 0.88  0.72 0.88 0.88  0.5600000000000001 0.88 0.88  0.4 0.88 0.88  0.24 0.88 0.88  0.08 0.88 0.88  -0.08 0.88 0.88  -0.24 0.88 0.88  -0.4 0.88 0.88  -0.5600000000000001 0.88 0.88  -0.72 0.88 0.88  -0.88 0.72 0.88  -0.88 0.5600000000000001 0.88  -0.88 0.4 0.88  -0.88 0.24 0.88  -0.88 0.08 0.88  -0.88 -0.08 0.88  -0.88 -0.24 0.88  -0.88 -0.4 0.88  -0.88 -0.5600000000000001 0.88  -0.88 -0.72 0.88  -0.72 -0.88 0.88  -0.5600000000000001 -0.88 0.88  -0.4 -0.88 0.88  -0.24 -0.88 0.88  -0.08 -0.88 0.88  0.08 -0.88 0.88  0.24 -0.88 0.88  0.4 -0.88 0.88  0.5600000000000001 -0.88 0.88  0.72 -0.88 0.88  0.72 -0.88 -0.88  0.5600000000000001 -0.88 -0.88  0.4 -0.88 -0.88  0.24 -0.88 -0.88  0.08 -0.88 -0.88  -0.08 -0.88 -0.88  -0.24 -0.88 -0.88  -0.4 -0.88 -0.88  -0.5600000000000001 -0.88 -0.88  -0.72 -0.88 -0.88  -0.88 -0.72 -0.88  -0.88 -0.5600000000000001 -0.88  -0.88 -0.4 -0.88  -0.88 -0.24 -0.88  -0.88 -0.08 -0.88  -0.88 0.08 -0.88  -0.88 0.24 -0.88  -0.88 0.4 -0.88  -0.88 0.5600000000000001 -0.88  -0.88 0.72 -0.88  -0.72 0.88 -0.88  -0.5600000000000001 0.88 -0.88  -0.4 0.88 -0.88  -0.24 0.88 -0.88  -0.08 0.88 -0.88  0.08 0.88 -0.88  0.24 0.88 -0.88  0.4 0.88 -0.88  0.5600000000000001 0.88 -0.88  0.72 0.88 -0.88  -0.88 -0.88 0.72  -0.88 -0.88 0.5600000000000001  -0.88 -0.88 0.4  -0.88 -0.88 0.24  -0.88 -0.88 0.08  -0.88 -0.88 -0.08  -0.88 -0.88 -0.24  -0.88 -0.88 -0.4  -0.88 -0.88 -0.5600000000000001  -0.88 -0.88 -0.72  -0.88 0.88 0.72  -0.88 0.88 0.5600000000000001  -0.88 0.88 0.4  -0.88 0.88 0.24  -0.88 0.88 0.08  -0.88 0.88 -0.08  -0.88 0.88 -0.24  -0.88 0.88 -0.4  -0.88 0.88 -0.5600000000000001  -0.88 0.88 -0.72  0.87 -0.696 0.87  0.87 -0.522 0.87  0.87 -0.348 0.87  0.87 -0.174 0.87  0.87 -4.85722573274e-17 0.87  0.87 0.174 0.87  0.87 0.348 0.87  0.87 0.522 0.87  0.87 0.696 0.87  0.696 0.87 0.87  0.522 0.87 0.87  0.348 0.87 0.87  0.174 0.87 0.87  4.85722573274e-17 0.87 0.87  -0.174 0.87 0.87  -0.348 0.87 0.87  -0.522 0.87 0.87  -0.696 0.87 0.87  -0.87 0.696 0.87  -0.87 0.522 0.87  -0.87 0.348 0.87  -0.87 0.174 0.87  -0.87 4.85722573274e-17 0.87  -0.87 -0.174 0.87  -0.87 -0.348 0.87  -0.87 -0.522 0.87  -0.87 -0.696 0.87  -0.696 -0.87 0.87  -0.522 -0.87 0.87  -0.348 -0.87 0.87  -0.174 -0.87 0.87  -4.85722573274e-17 -0.87 0.87  0.174 -0.87 0.87  0.348 -0.87 0.87  0.522 -0.87 0.87  0.696 -0.87 0.87  0.87 0.696 -0.87  0.87 0.522 -0.87  0.87 0.348 -0.87  0.87 0.174 -0.87  0.87 4.85722573274e-17 -0.87  0.87 -0.174 -0.87  0.87 -0.348 -0.87  0.87 -0.522 -0.87  0.87 -0.696 -0.87  0.696 -0.87 -0.87  0.522 -0.87 -0.87  0.348 -0.87 -0.87  0.174 -0.87 -0.87  4.85722573274e-17 -0.87 -0.87  -0.174 -0.87 -0.87  -0.348 -0.87 -0.87  -0.522 -0.87 -0.87  -0.696 -0.87 -0.87  -0.87 -0.696 -0.87  -0.87 -0.522 -0.87  -0.87 -0.348 -0.87  -0.87 -0.174 -0.87  -0.87 -4.85722573274e-17 -0.87  -0.87 0.174 -0.87  -0.87 0.348 -0.87  -0.87 0.522 -0.87  -0.87 0.696 -0.87  -0.696 0.87 -0.87  -0.522 0.87 -0.87  -0.348 0.87 -0.87  -0.174 0.87 -0.87  -4.85722573274e-17 0.87 -0.87  0.174 0.87 -0.87  0.348 0.87 -0.87  0.522 0.87 -0.87  0.696 0.87 -0.87  -0.87 -0.87 0.696  -0.87 -0.87 0.522  -0.87 -0.87 0.348  -0.87 -0.87 0.174  -0.87 -0.87 4.85722573274e-17  -0.87 -0.87 -0.174  -0.87 -0.87 -0.348  -0.87 -0.87 -0.522  -0.87 -0.87 -0.696  0.87 -0.87 0.696  0.87 -0.87 0.522  0.87 -0.87 0.348  0.87 -0.87 0.174  0.87 -0.87 4.85722573274e-17  0.87 -0.87 -0.174  0.87 -0.87 -0.348  0.87 -0.87 -0.522  0.87 -0.87 -0.696  -0.87 0.87 0.696  -0.87 0.87 0.522  -0.87 0.87 0.348  -0.87 0.87 0.174  -0.87 0.87 4.85722573274e-17  -0.87 0.87 -0.174  -0.87 0.87 -0.348  -0.87 0.87 -0.522  -0.87 0.87 -0.696  0.87 0.87 0.696  0.87 0.87 0.522  0.87 0.87 0.348  0.87 0.87 0.174  0.87 0.87 4.85722573274e-17  0.87 0.87 -0.174  0.87 0.87 -0.348  0.87 0.87 -0.522  0.87 0.87 -0.696  1 -0.833333333333 1  1 -0.666666666667 1  1 -0.5 1  1 -0.333333333333 1  1 -0.166666666667 1  1 -2.22044604925e-16 1  1 0.166666666667 1  1 0.333333333333 1  1 0.5 1  1 0.666666666667 1  1 0.833333333333 1  0.833333333333 1 1  0.666666666667 1 1  0.5 1 1  0.333333333333 1 1  0.166666666667 1 1  2.22044604925e-16 1 1  -0.166666666667 1 1  -0.333333333333 1 1  -0.5 1 1  -0.666666666667 1 1  -0.833333333333 1 1  -1 0.833333333333 1  -1 0.666666666667 1  -1 0.5 1  -1 0.333333333333 1  -1 0.166666666667 1  -1 2.22044604925e-16 1  -1 -0.166666666667 1  -1 -0.333333333333 1  -1 -0.5 1  -1 -0.666666666667 1  -1 -0.833333333333 1  -0.833333333333 -1 1  -0.666666666667 -1 1  -0.5 -1 1  -0.333333333333 -1 1  -0.166666666667 -1 1  -2.22044604925e-16 -1 1  0.166666666667 -1 1  0.333333333333 -1 1  0.5 -1 1  0.666666666667 -1 1  0.833333333333 -1 1  1 0.833333333333 -1  1 0.666666666667 -1  1 0.5 -1  1 0.333333333333 -1  1 0.166666666667 -1  1 2.22044604925e-16 -1  1 -0.166666666667 -1  1 -0.333333333333 -1  1 -0.5 -1  1 -0.666666666667 -1  1 -0.833333333333 -1  0.833333333333 -1 -1  0.666666666667 -1 -1  0.5 -1 -1  0.333333333333 -1 -1  0.166666666667 -1 -1  2.22044604925e-16 -1 -1  -0.166666666667 -1 -1  -0.333333333333 -1 -1  -0.5 -1 -1  -0.666666666667 -1 -1  -0.833333333333 -1 -1  -1 -0.833333333333 -1  -1 -0.666666666667 -1  -1 -0.5 -1  -1 -0.333333333333 -1  -1 -0.166666666667 -1  -1 -2.22044604925e-16 -1  -1 0.166666666667 -1  -1 0.333333333333 -1  -1 0.5 -1  -1 0.666666666667 -1  -1 0.833333333333 -1  -0.833333333333 1 -1  -0.666666666667 1 -1  -0.5 1 -1  -0.333333333333 1 -1  -0.166666666667 1 -1  -2.22044604925e-16 1 -1  0.166666666667 1 -1  0.333333333333 1 -1  0.5 1 -1  0.666666666667 1 -1  0.833333333333 1 -1  -1 -1 0.833333333333  -1 -1 0.666666666667  -1 -1 0.5  -1 -1 0.333333333333  -1 -1 0.166666666667  -1 -1 2.22044604925e-16  -1 -1 -0.166666666667  -1 -1 -0.333333333333  -1 -1 -0.5  -1 -1 -0.666666666667  -1 -1 -0.833333333333  1 -1 0.833333333333  1 -1 0.666666666667  1 -1 0.5  1 -1 0.333333333333  1 -1 0.166666666667  1 -1 2.22044604925e-16  1 -1 -0.166666666667  1 -1 -0.333333333333  1 -1 -0.5  1 -1 -0.666666666667  1 -1 -0.833333333333  -1 1 0.833333333333  -1 1 0.666666666667  -1 1 0.5  -1 1 0.333333333333  -1 1 0.166666666667  -1 1 2.22044604925e-16  -1 1 -0.166666666667  -1 1 -0.333333333333  -1 1 -0.5  -1 1 -0.666666666667  -1 1 -0.833333333333  1 1 0.833333333333  1 1 0.666666666667  1 1 0.5  1 1 0.333333333333  1 1 0.166666666667  1 1 2.22044604925e-16  1 1 -0.166666666667  1 1 -0.333333333333  1 1 -0.5  1 1 -0.666666666667  1 1 -0.833333333333  0.869 -0.6952 0.869  0.869 -0.5214 0.869  0.869 -0.3476 0.869  0.869 -0.1738 0.869  0.869 0 0.869  0.869 0.1738 0.869  0.869 0.3476 0.869  0.869 0.5214 0.869  0.869 0.6952 0.869  -0.6952 -0.869 0.869  -0.5214 -0.869 0.869  -0.3476 -0.869 0.869  -0.1738 -0.869 0.869  0 -0.869 0.869  0.1738 -0.869 0.869  0.3476 -0.869 0.869  0.5214 -0.869 0.869  0.6952 -0.869 0.869  -0.869 0.6952 0.869  -0.869 0.5214 0.869  -0.869 0.3476 0.869  -0.869 0.1738 0.869  -0.869 0 0.869  -0.869 -0.1738 0.869  -0.869 -0.3476 0.869  -0.869 -0.5214 0.869  -0.869 -0.6952 0.869  0.6952 0.869 0.869  0.5214 0.869 0.869  0.3476 0.869 0.869  0.1738 0.869 0.869  0 0.869 0.869  -0.1738 0.869 0.869  -0.3476 0.869 0.869  -0.5214 0.869 0.869  -0.6952 0.869 0.869  0.869 0.6952 -0.869  0.869 0.5214 -0.869  0.869 0.3476 -0.869  0.869 0.1738 -0.869  0.869 0 -0.869  0.869 -0.1738 -0.869  0.869 -0.3476 -0.869  0.869 -0.5214 -0.869  0.869 -0.6952 -0.869  -0.6952 0.869 -0.869  -0.5214 0.869 -0.869  -0.3476 0.869 -0.869  -0.1738 0.869 -0.869  0 0.869 -0.869  0.1738 0.869 -0.869  0.3476 0.869 -0.869  0.5214 0.869 -0.869  0.6952 0.869 -0.869  -0.869 -0.6952 -0.869  -0.869 -0.5214 -0.869  -0.869 -0.3476 -0.869  -0.869 -0.1738 -0.869  -0.869 0 -0.869  -0.869 0.1738 -0.869  -0.869 0.3476 -0.869  -0.869 0.5214 -0.869  -0.869 0.6952 -0.869  0.6952 -0.869 -0.869  0.5214 -0.869 -0.869  0.3476 -0.869 -0.869  0.1738 -0.869 -0.869  0 -0.869 -0.869  -0.1738 -0.869 -0.869  -0.3476 -0.869 -0.869  -0.5214 -0.869 -0.869  -0.6952 -0.869 -0.869  -0.869 -0.869 0.6952  -0.869 -0.869 0.5214  -0.869 -0.869 0.3476  -0.869 -0.869 0.1738  -0.869 -0.869 0  -0.869 -0.869 -0.1738  -0.869 -0.869 -0.3476  -0.869 -0.869 -0.5214  -0.869 -0.869 -0.6952  0.869 -0.869 0.6952  0.869 -0.869 0.5214  0.869 -0.869 0.3476  0.869 -0.869 0.1738  0.869 -0.869 0  0.869 -0.869 -0.1738  0.869 -0.869 -0.3476  0.869 -0.869 -0.5214  0.869 -0.869 -0.6952  -0.869 0.869 0.6952  -0.869 0.869 0.5214  -0.869 0.869 0.3476  -0.869 0.869 0.1738  -0.869 0.869 0  -0.869 0.869 -0.1738  -0.869 0.869 -0.3476  -0.869 0.869 -0.5214  -0.869 0.869 -0.6952  0.869 0.869 0.6952  0.869 0.86
[...]
<PointData  Scalars="f_91"> 
<DataArray  type="Float64"  Name="f_91"  format="ascii">2.8366863172766296e+02  2.8366863683333884e+02  2.8366864805238225e+02  2.8366866058026284e+02  2.8366865162871767e+02  2.8366865550975172e+02  2.8366865216577003e+02  2.8366862924379149e+02  2.8364435357977294e+02  2.8364435357977294e+02  2.8364435357977294e+02  2.8364435357977294e+02  2.8364435357977294e+02  2.8364435357977294e+02  2.8364435357977294e+02  2.8364435357977294e+02  2.8367170055994143e+02  2.8367155931497422e+02  2.8367167680835547e+02  2.8367155313858171e+02  2.8367156111626878e+02  2.8367168739725878e+02  2.8367167681089984e+02  2.8367169599230505e+02  2.8364441507357759e+02  2.8364441472685644e+02  2.8364441527073240e+02  2.8364438148829930e+02  2.8364441659004655e+02  2.8364441471638253e+02  2.8364433529172527e+02  2.8364427374386429e+02  2.8366649922588402e+02  2.8366541361720709e+02  2.8366482184317971e+02  2.8366451556947322e+02  2.8366430933164833e+02  2.8366431969174062e+02  2.8366451971959413e+02  2.8366483247989845e+02  2.8366541984370281e+02  2.8366638494318426e+02  2.8366639226059397e+02  2.8366543144461252e+02  2.8366483604655912e+02  2.8366453158933257e+02  2.8366438025456563e+02  2.8366427968256357e+02  2.8366452370975435e+02  2.8366484016733028e+02  2.8366540850094566e+02  2.8366636390914476e+02  2.8366627801037845e+02  2.8366543222981238e+02  2.8366483129271643e+02  2.8366451990408154e+02  2.8366428436544567e+02  2.8366437089915348e+02  2.8366452973104992e+02  2.8366484113223396e+02  2.8366542537879030e+02  2.8366638483760897e+02  2.8366626194213893e+02  2.8366542201236160e+02  2.8366483527440488e+02  2.8366452627697771e+02  2.8366433815559566e+02  2.8366432680957672e+02  2.8366452577209719e+02  2.8366484014537269e+02  2.8366541682451060e+02  2.8366650566272887e+02  2.8366628318326769e+02  2.8366541003482286e+02  2.8366484251344014e+02  2.8366452366591693e+02  2.8366428266270475e+02  2.8366437052504887e+02  2.8366452853580961e+02  2.8366483479917162e+02  2.8366541901302435e+02  2.8366624894120451e+02  2.8366649161992439e+02  2.8366541388112296e+02  2.8366482679640922e+02  2.8366450168044793e+02  2.8366423127979078e+02  2.8366433110816962e+02  2.8366451476461640e+02  2.8366483175406586e+02  2.8366542323139350e+02  2.8366626014668077e+02  2.8366639522675200e+02  2.8366540586135119e+02  2.8366484060008821e+02  2.8366453211049719e+02  2.8366437267000668e+02  2.8366428644362838e+02  2.8366452241976071e+02  2.8366483955137994e+02  2.8366541156192289e+02  2.8366637940891684e+02  2.8366637500568891e+02  2.8366542240782178e+02  2.8366482752435161e+02  2.8366451996339396e+02  2.8366428309779172e+02  2.8366437623552355e+02  2.8366452884058606e+02  2.8366483068219009e+02  2.8366542425470578e+02  2.8366637694938748e+02  2.8366649432167850e+02  2.8366541328009612e+02  2.8366482723123346e+02  2.8366452514988413e+02  2.8366436907451759e+02  2.8366428479251971e+02  2.8366452206734834e+02  2.8366483630224076e+02  2.8366541539455517e+02  2.8366638590157788e+02  2.8366637475357197e+02  2.8366542080240350e+02  2.8366482855780288e+02  2.8366452141104236e+02  2.8366428620021463e+02  2.8366437503280810e+02  2.8366453311856674e+02  2.8366483933671674e+02  2.8366540635613802e+02  2.8366627626894837e+02  2.8366640254810704e+02  2.8366543223818218e+02  2.8366482953766649e+02  2.8366451703662017e+02  2.8366427556264995e+02  2.8366437833869861e+02  2.8366453125528466e+02  2.8366484119431493e+02  2.8366541407370357e+02  2.8366624048901019e+02  2.8366637153045031e+02  2.8366541513508071e+02  2.8366483304680077e+02  2.8366452762063847e+02  2.8366433584340569e+02  2.8366433095270787e+02  2.8366452481861859e+02  2.8366483510679438e+02  2.8366540951469239e+02  2.8366637724404836e+02  2.8364435357977294e+02  2.8364435357977288e+02  2.8364435357977294e+02  2.8364435357977294e+02  2.8364435357977300e+02  2.8364435357977294e+02  2.8364435357977294e+02  2.8364435357977294e+02  2.8364435357977294e+02  2.8364435357977294e+02  2.8364435357977294e+02  2.8364435357977294e+02  2.8364435357977294e+02  2.8364435357977294e+02  2.8364435357977294e+02  2.8364435357977288e+02  2.8364435357977294e+02  2.8364435357977294e+02  2.8364435357977294e+02  2.8364435357977294e+02  2.8364435357977300e+02  2.8364435357977294e+02  2.8364435357977294e+02  2.8364435357977294e+02  2.8364435357977294e+02  2.8364435357977294e+02  2.8364435357977294e+02  2.8364435357977294e+02  2.8364435357977294e+02  2.8364435357977294e+02  2.8364435357977294e+02  2.8364435357977294e+02  2.8364435357977294e+02  2.8364435357977294e+02  2.8364435357977294e+02  2.8364435357977294e+02  2.8364435357977294e+02  2.8364435357977294e+02  2.8364435357977294e+02  2.8364435357977294e+02  2.8364435357977294e+02  2.8364435357977294e+02  2.8364435357977294e+02  2.8364435357977294e+02  2.8364435357977294e+02  2.8364435357977294e+02  2.8364435357977294e+02  2.8364435357977294e+02  2.8364435357977294e+02  2.8364435357977294e+02  2.8364435357977294e+02  2.8364435357977294e+02  2.8364435357977294e+02  2.8364435357977294e+02  2.8364435357977294e+02  2.8364435357977294e+02  2.8364435357977294e+02  2.8364435357977294e+02  2.8364435357977300e+02  2.8364435357977294e+02  2.8364435357977294e+02  2.8364435357977294e+02  2.8364435357977294e+02  2.8364435357977294e+02  2.8364435357977294e+02  2.8364435357977294e+02  2.8364435357977294e+02  2.8364435357977294e+02  2.8364435357977294e+02  2.8364435357977294e+02  2.8364435357977294e+02  2.8364435357977294e+02  2.8364435357977294e+02  2.8364435357977294e+02  2.8364435357977294e+02  2.8364435357977294e+02  2.8364435357977294e+02  2.8364435357977294e+02  2.8364435357977294e+02  2.8364435357977294e+02  2.8364435357977294e+02  2.8364435357977294e+02  2.8364435357977294e+02  2.8364435357977294e+02  2.8364435357977294e+02  2.8364435357977294e+02  2.8364435357977294e+02  2.8364435357977294e+02  2.8364435357977294e+02  2.8364435357977294e+02  2.8364435357977294e+02  2.8364435357977294e+02  2.8364435357977294e+02  2.8364435357977294e+02  2.8364435357977294e+02  2.8364435357977294e+02  2.8364435357977294e+02  2.8364435357977294e+02  2.8364435357977294e+02  2.8364435357977294e+02  2.8364435357977294e+02  2.8364435357977294e+02  2.8364435357977294e+02  2.8364435357977294e+02  2.8364435357977294e+02  2.8364435357977294e+02  2.8364435357977294e+02  2.8364435357977294e+02  2.8367040595496138e+02  2.8366882983257307e+02  2.8366792077630851e+02  2.8366741390589186e+02  2.8366717219995076e+02  2.8366709728556987e+02  2.8366717061524673e+02  2.8366741561784420e+02  2.8366792731392042e+02  2.8366887631663496e+02  2.8367032962364146e+02  2.8367009413139453e+02  2.8366895368828068e+02  2.8366795150326783e+02  2.8366742328054119e+02  2.8366718556968021e+02  2.8366710120007122e+02  2.8366715691565895e+02  2.8366741075249337e+02  2.8366792612717074e+02  2.8366885208581914e+02  2.8367038657806677e+02  2.8367033152401888e+02  2.8366885378021027e+02  2.8366791060877176e+02  2.8366740019176581e+02  2.8366715746251094e+02  2.8366706824976711e+02  2.8366713583948496e+02  2.8366740246026274e+02  2.8366792693201347e+02  2.8366885858217165e+02  2.8367037950341376e+02  2.8367005292664169e+02  2.8366894895854489e+02  2.8366795361872016e+02  2.8366741962421685e+02  2.8366716059091294e+02  2.8366710286505173e+02  2.8366718495519387e+02  2.8366741822045037e+02  2.8366793022696078e+02  2.8366884382533453e+02  2.8367038180310669e+02  2.8367035432930334e+02  2.8366885364681599e+02  2.8366791668378534e+02  2.8366741229789142e+02  2.8366716060694267e+02  2.8366710466012410e+02  2.8366718617585349e+02  2.8366742378784301e+02  2.8366794665980450e+02  2.8366887781235619e+02  2.8367035605032009e+02  2.8367035541916579e+02  2.8366884117697595e+02  2.8366790899918908e+02  2.8366741208255223e+02  2.8366718282202083e+02  2.8366710251243939e+02  2.8366715778159147e+02  2.8366740822013253e+02  2.8366791022711647e+02  2.8366884437214907e+02  2.8367035698015962e+02  2.8367033311005929e+02  2.8366885757714107e+02  2.8366791656505933e+02  2.8366740532822678e+02  2.8366715410842653e+02  2.8366709998091721e+02  2.8366718402927063e+02  2.8366741739758857e+02  2.8366792248492141e+02  2.8366884564422685e+02  2.8367037420191127e+02  2.8367034801535311e+02  2.8366885221857262e+02  2.8366791378444560e+02  2.8366741365695486e+02  2.8366718448548477e+02  2.8366710395343119e+02  2.8366716171734987e+02  2.8366741951087192e+02  2.8366795454796517e+02  2.8366896557254483e+02  2.8367010504583158e+02  2.8367037580979365e+02  2.8366882816569040e+02  2.8366790420716734e+02  2.8366740968298473e+02  2.8366717962186470e+02  2.8366710128448716e+02  2.8366715946363428e+02  2.8366741526464682e+02  2.8366794030792744e+02  2.8366886313519990e+02  2.8367038881264773e+02  2.8367032747610989e+02  2.8366886868740698e+02  2.8366791164676255e+02  2.8366740410902543e+02  2.8366715933359359e+02  2.8366708407388728e+02  2.8366716262083560e+02  2.8366740650826057e+02  2.8366791145222749e+02  2.8366883006851128e+02  2.8367037871122596e+02  2.8367036037072808e+02  2.8366885752774965e+02  2.8366792713272355e+02  2.8366741602339795e+02  2.8366717305741133e+02  2.8366709791343317e+02  2.8366717049840480e+02  2.8366741283514096e+02  2.8366792687646381e+02  2.8366884134251666e+02  2.8367038095981763e+02  2.8367040214133840e+02  2.8366882565157363e+02  2.8366791096162910e+02  2.8366741351926629e+02  2.8366718261289731e+02  2.8366710071010897e+02  2.8366715740029412e+02  2.8366741220582855e+02  2.8366792532290668e+02  2.8366886238280648e+02  2.8367036060123041e+02  2.8364453613757649e+02  2.8364444075117802e+02  2.8364443463522895e+02  2.8364445302514605e+02  2.8364440966448137e+02  2.8364437664176455e+02  2.8364445279672691e+02  2.8364427544679052e+02  2.8364459163335050e+02  2.8364457189642019e+02  2.8364426461383442e+02  2.8364440276271745e+02  2.8364437885079582e+02  2.8364442089203271e+02  2.8364444970080376e+02  2.8364442195098678e+02  2.8364442411435897e+02  2.8364455112659232e+02  2.8364455791641137e+02  2.8364427178109634e+02  2.8364441330575482e+02  2.8364443018739627e+02  2.8364435227320308e+02  2.8364443014672048e+02  2.8364441477620443e+02  2.8364432286383999e+02  2.8364452735708318e+02  2.8364454403696016e+02  2.8364438906591607e+02  2.8364443284344384e+02  2.8364438631296105e+02  2.8364440214333632e+02  2.8364441957519597e+02  2.8364445279336877e+02  2.8364435270634891e+02  2.8364450304679428e+02  2.8364447278717830e+02  2.8364430099147353e+02  2.8364446219346269e+02  2.8364445924724038e+02  2.8364436119290127e+02  2.8364438626542005e+02  2.8364444288829986e+02  2.8364436674027672e+02  2.8364456128803266e+02  2.8364456865390702e+02  2.8364434071305146e+02  2.8364448582388559e+02  2.8364444589264019e+02  2.8364437147861452e+02  2.8364444756931294e+02  2.8364448091830332e+02  2.8364445849545149e+02  2.8364459702665806e+02  2.8364463204708738e+02  2.8364448061263153e+02  2.8364447026562419e+02  2.8364444726446754e+02  2.8364437076355790e+02  2.8364441307298631e+02  2.8364440760105640e+02  2.8364434350378156e+02  2.8364455236811159e+02  2.8364455943892739e+02  2.8364444681913949e+02  2.8364447616210413e+02  2.8364438816990923e+02  2.8364439066952866e+02  2.8364445316309173e+02  2.8364448327654316e+02  2.8364447674924719e+02  2.8364459750977255e+02  2.8364449468291747e+02  2.8364443043983471e+02  2.8364447147216731e+02  2.8364450520966369e+02  2.8364443528780214e+02  2.8364441564631380e+02  2.8364442479215086e+02  2.8364432036242175e+02  2.8364455537078322e+02  2.8364454800697337e+02  2.8364432930608302e+02  2.8364442043153855e+02  2.8364445460473991e+02  2.8364442390076061e+02  2.8364442344470149e+02  2.8364442020264511e+02  2.8364425283601923e+02  2.8364458871798689e+02  2.8364462352995264e+02  2.8364442861248460e+02  2.8364440998382395e+02  2.8364447657720200e+02  2.8364445601054450e+02  2.8364449704932770e+02  2.8364447303891666e+02  2.8364432799501611e+02  2.8364461044333018e+02  2.8364457126122880e+02  2.8364447570870533e+02  2.8364453568550209e+02  2.8364443032138013e+02  2.8364444589271142e+02  2.8364440489295527e+02  2.8364435804385926e+02  2.8364428166053841e+02  2.8364451240213725e+02  2.8366410244141747e+02  2.8366310638529438e+02  2.8366271674036460e+02  2.8366233862385417e+02  2.8366249423152908e+02  2.8366250496348880e+02  2.8366307964850211e+02  2.8366407503823632e+02  2.8366405961069103e+02  2.8366409796776043e+02  2.8366308509373636e+02  2.8366308687165895e+02  2.8366249514311193e+02  2.8366250486124164e+02  2.8366233172824917e+02  2.8366271926628008e+02  2.8366272158500658e+02  2.8366314679990012e+02  2.8366402357861995e+02  2.8366271417218405e+02  2.8366272076134749e+02  2.8366233571458810e+02  2.8366250397570343e+02  2.8366272510785387e+02  2.8366314038490032e+02  2.8366403938407410e+02  2.8366404769877659e+02  2.8366314112554062e+02  2.8366250138454484e+02  2.8366272186879144e+02  2.8366249115869493e+02  2.8366233444487614e+02  2.8366251385201508e+02  2.8366272803026118e+02  2.8366313055861059e+02  2.8366411950233504e+02  2.8366259093914817e+02  2.8366198569946062e+02  2.8366165776270407e+02  2.8366150596247104e+02  2.8366140142707184e+02  2.8366164443580965e+02  2.8366198060722689e+02  2.8366259475158296e+02  2.8366259532824176e+02  2.8366197952016307e+02  2.8366165295133686e+02  2.8366140677613680e+02  2.8366150433685726e+02  2.8366163993964136e+02  2.8366198476792943e+02  2.8366140058726285e+02  2.8366163947390470e+02  2.8366193336857947e+02  2.8366258951328160e+02  2.8366193197848224e+02  2.8366164491042059e+02  2.8366165007324213e+02  2.8366150047118219e+02  2.8366150297320110e+02  2.8366140485015387e+02  2.8366193336205055e+02  2.8366164738213246e+02  2.8366193788597775e+02  2.8366174900000152e+02  2.8366174517763744e+02  2.8366128398312850e+02  2.8366101349355193e+02  2.8366086618612621e+02  2.8366102891205543e+02  2.8366103862052421e+02  2.8366128782321488e+02  2.8366174071735202e+02  2.8366174362599628e+02  2.8366128790635838e+02  2.8366087179167567e+02  2.8366102118561952e+02  2.8366128658923168e+02  2.8366129449221830e+02  2.8366103832048890e+02  2.8366087793934008e+02  2.8366102836121104e+02  2.8366128747159809e+02  2.8366128976140561e+02  2.8366103953614936e+02  2.8366087319192116e+02  2.8366102364853282e+02  2.8366129508211924e+02  2.8366090185718627e+02  2.8366090497852178e+02  2.8366089570410679e+02  2.8366090370162829e+02  2.8366062073073368e+02  2.8366072519866094e+02  2.8366078763980801e+02  2.8366078649340062e+02  2.8366077272573847e+02  2.8366085549039371e+02  2.8366077175034809e+02  2.8366076764367347e+02  2.8366065751907058e+02  2.8366064851573060e+02  2.8366044414635275e+02  2.8366071468691524e+02  2.8366062153889328e+02  2.8366072524814376e+02  2.8366047533465212e+02  2.8366055136596918e+02  2.8366062773049879e+02  2.8366233574652091e+02  2.8366271662659676e+02  2.8366308821805654e+02  2.8366410560613963e+02  2.8366250029222198e+02  2.8366250917764256e+02  2.8366405813479753e+02  2.8366272055144901e+02  2.8366314103319405e+02  2.8366310160087812e+02  2.8366272832692999e+02  2.8366251038964020e+02  2.8366400829764723e+02  2.8366233662196839e+02  2.8366250025876496e+02  2.8366310739550556e+02  2.8366402665109672e+02  2.8366272006705145e+02  2.8366410062627233e+02  2.8366311560404063e+02  2.8366271388852334e+02  2.8366248792908425e+02  2.8366231035884903e+02  2.8366249074616894e+02  2.8366310809086781e+02  2.8366402557720477e+02  2.8366271492514500e+02  2.8366408485266697e+02  2.8366312002672606e+02  2.8366272270640007e+02  2.8366250015267502e+02  2.8366233772748723e+02  2.8366250899226668e+02  2.8366272402935078e+02  2.8366312252548028e+02  2.8366408587429260e+02  2.8366258179410613e+02  2.8366198067655887e+02  2.8366165447904655e+02  2.8366150598073961e+02  2.8366140200931869e+02  2.8366164462186583e+02  2.8366197838410432e+02  2.8366258460213078e+02  2.8366193719218893e+02  2.8366164707106395e+02  2.8366149723179535e+02  2.8366139489937984e+02  2.8366164484256365e+02  2.8366197126947441e+02  2.8366258150068950e+02  2.8366193534708339e+02  2.8366164833828924e+02  2.8366140347184722e+02  2.8366150533269979e+02  2.8366166200743669e+02  2.8366197917011402e+02  2.8366193613809645e+02  2.8366259059739576e+02  2.8366164046830318e+02  2.8366193317894931e+02  2.8366165740498332e+02  2.8366150604877384e+02  2.8366140215415993e+02  2.8366086858592627e+02  2.8366102498291480e+02  2.8366134801026016e+02  2.8366173885873644e+02  2.8366102323599438e+02  2.8366128920055706e+02  2.8366174570809835e+02  2.8366134962969517e+02  2.8366102755408491e+02  2.8366086780670304e+02  2.8366103173564926e+02  2.8366135128997291e+02  2.8366173780327580e+02  2.8366135107033790e+02  2.8366103844006602e+02  2.8366087701915046e+02  2.8366102555610610e+02  2.8366128738532535e+02  2.8366174320213327e+02  2.8366129051819462e+02  2.8366103382070963e+02  2.8366087375732803e+02  2.8366102639355813e+02  2.8366128959650428e+02  2.8366089452720752e+02  2.8366078695258437e+02  2.8366090090270910e+02  2.8366078483690910e+02  2.8366072088094126e+02  2.8366062472768931e+02  2.8366077497449021e+02  2.8366079204161991e+02  2.8366076944979449e+02  2.8366072746757396e+02  2.8366082549051202e+02  2.8366076837717719e+02  2.8366060471841007e+02  2.8366060121129942e+02  2.8366073761705451e+02  2.8366062939661202e+02  2.8366065379214541e+02  2.8366042376307490e+02  2.8366057096141441e+02  2.8366067285540703e+02  2.8366064817241698e+02  2.8366311413733069e+02  2.8366249899437338e+02  2.8366250952144878e+02  2.8366272746373653e+02  2.8366408278346677e+02  2.8366404154120517e+02  2.8366251178373693e+02  2.8366250402438868e+02  2.8366313907405993e+02  2.8366310553555707e+02  2.8366309246016090e+02  2.8366272692387736e+02  2.8366233974347188e+02  2.8366233874567456e+02  2.8366272149389636e+02  2.8366402757223392e+02  2.8366411088572414e+02  2.8366271964278036e+02  2.8366404505588957e+02  2.8366312413600184e+02  2.8366271924755694e+02  2.8366249765290257e+02  2.8366233615679590e+02  2.8366407888720852e+02  2.8366314251932675e+02  2.8366272719476910e+02  2.8366406449745676e+02  2.8366251051400519e+02  2.8366309382087212e+02  2.8366272569150823e+02  2.8366251194477121e+02  2.8366233612007591e+02  2.8366250411998448e+02  2.8366272534399451e+02  2.8366312159582998e+02  2.8366407458042505e+02  2.8366258236667363e+02  2.8366197968436978e+02  2.8366165683619715e+02  2.8366141555863868e+02  2.8366151174898579e+02  2.8366166193863120e+02  2.8366200378966067e+02  2.8366165767306040e+02  2.8366262678532217e+02  2.8366195528925937e+02  2.8366150726617900e+02  2.8366140123835453e+02  2.8366164246212452e+02  2.8366197722774706e+02  2.8366258980803707e+02  2.8366205886559220e+02  2.8366193622267980e+02  2.8366140587117144e+02  2.8366164936329744e+02  2.8366150869945602e+02  2.8366253207362280e+02  2.8366194095168674e+02  2.8366166222406440e+02  2.8366150375825418e+02  2.8366166176471143e+02  2.8366163808773678e+02  2.8366139822398168e+02  2.8366194006271996e+02  2.8366174253035973e+02  2.8366128709272022e+02  2.8366102090489926e+02  2.8366086812092016e+02  2.8366103742037683e+02  2.8366134229138419e+02  2.8366173529630095e+02  2.8366102727661820e+02  2.8366087289278516e+02  2.8366103462141876e+02  2.8366135498997687e+02  2.8366174251922388e+02  2.8366135354213759e+02  2.8366128871774646e+02  2.8366104098882113e+02  2.8366087674320687e+02  2.8366167364825537e+02  2.8366127872265469e+02  2.8366102419549867e+02  2.8366128207341308e+02  2.8366102744135753e+02  2.8366088189475249e+02  2.8366104548891423e+02  2.8366135896731629e+02  2.8366088289225286e+02  2.8366078944690986e+02  2.8366077757076107e+02  2.8366090280861101e+02  2.8366073749005750e+02  2.8366062868681701e+02  2.8366077108605742e+02  2.8366080748955784e+02  2.8366076775940303e+02  2.8366081283074902e+02  2.8366082306116090e+02  2.8366076207826472e+02  2.8366071097453568e+02  2.8366060341378898e+02  2.8366043187344559e+02  2.8366066026567620e+02  2.8366065143965756e+02  2.8366063244839569e+02  2.8366055909873330e+02  2.8366050831398115e+02  2.8366063057824306e+02  2.8366402672143926e+02  2.8366308788497207e+02  2.8366271969632339e