<?xml version="1.0"?>
<VTKFile type="UnstructuredGrid"  version="0.1"  >
<UnstructuredGrid>
<Piece  NumberOfPoints="101" NumberOfCells="100">
<Points>
<DataArray  type="Float64"  NumberOfComponents="3"  format="ascii">0 0 0  0.001 0 0  0.002 0 0  0.003 0 0  0.004 0 0  0.005 0 0  0.006000000000000001 0 0  0.007000000000000001 0 0  0.008 0 0  0.009000000000000001 0 0  0.01 0 0  0.011 0 0  0.012 0 0  0.013 0 0  0.014 0 0  0.015 0 0  0.016 0 0  0.017 0 0  0.018 0 0  0.019 0 0  0.02 0 0  0.021 0 0  0.022 0 0  0.023 0 0  0.024 0 0  0.025 0 0  0.026 0 0  0.027 0 0  0.028 0 0  0.029 0 0  0.03 0 0  0.031 0 0  0.032 0 0  0.033 0 0  0.034 0 0  0.035 0 0  0.036 0 0  0.03700000000000001 0 0  0.03800000000000001 0 0  0.03900000000000001 0 0  0.04 0 0  0.04100000000000001 0 0  0.042 0 0  0.043 0 0  0.044 0 0  0.045 0 0  0.04600000000000001 0 0  0.047 0 0  0.04800000000000001 0 0  0.049 0 0  0.05 0 0  0.051 0 0  0.052 0 0  0.05300000000000001 0 0  0.05400000000000001 0 0  0.055 0 0  0.05600000000000001 0 0  0.057 0 0  0.05800000000000001 0 0  0.059 0 0  0.06 0 0  0.06100000000000001 0 0  0.062 0 0  0.063 0 0  0.064 0 0  0.065 0 0  0.066 0 0  0.067 0 0  0.068 0 0  0.06900000000000001 0 0  0.07000000000000001 0 0  0.07100000000000001 0 0  0.07200000000000001 0 0  0.07300000000000001 0 0  0.07400000000000001 0 0  0.075 0 0  0.07600000000000001 0 0  0.077 0 0  0.07800000000000001 0 0  0.079 0 0  0.08 0 0  0.081 0 0  0.08200000000000002 0 0  0.083 0 0  0.08400000000000001 0 0  0.08500000000000001 0 0  0.08599999999999999 0 0  0.08700000000000001 0 0  0.08800000000000001 0 0  0.08900000000000001 0 0  0.09 0 0  0.091 0 0  0.09200000000000001 0 0  0.09300000000000001 0 0  0.094 0 0  0.095 0 0  0.09600000000000002 0 0  0.09700000000000002 0 0  0.098 0 0  0.099 0 0  0.1 0 0  </DataArray>
</Points>
<Cells>
<DataArray  type="UInt32"  Name="connectivity"  format="ascii">0 1  1 2  2 3  3 4  4 5  5 6  6 7  7 8  8 9  9 10  10 11  11 12  12 13  13 14  14 15  15 16  16 17  17 18  18 19  19 20  20 21  21 22  22 23  23 24  24 25  25 26  26 27  27 28  28 29  29 30  30 31  31 32  32 33  33 34  34 35  35 36  36 37  37 38  38 39  39 40  40 41  41 42  42 43  43 44  44 45  45 46  46 47  47 48  48 49  49 50  50 51  51 52  52 53  53 54  54 55  55 56  56 57  57 58  58 59  59 60  60 61  61 62  62 63  63 64  64 65  65 66  66 67  67 68  68 69  69 70  70 71  71 72  72 73  73 74  74 75  75 76  76 77  77 78  78 79  79 80  80 81  81 82  82 83  83 84  84 85  85 86  86 87  87 88  88 89  89 90  90 91  91 92  92 93  93 94  94 95  95 96  96 97  97 98  98 99  99 100  </DataArray>
<DataArray  type="UInt32"  Name="offsets"  format="ascii">2 4 6 8 10 12 14 16 18 20 22 24 26 28 30 32 34 36 38 40 42 44 46 48 50 52 54 56 58 60 62 64 66 68 70 72 74 76 78 80 82 84 86 88 90 92 94 96 98 100 102 104 106 108 110 112 114 116 118 120 122 124 126 128 130 132 134 136 138 140 142 144 146 148 150 152 154 156 158 160 162 164 166 168 170 172 174 176 178 180 182 184 186 188 190 192 194 196 198 200 </DataArray>
<DataArray  type="UInt8"  Name="types"  format="ascii">3 3 3 3 3 3 3 3 3 3 3 3 3 3 3 3 3 3 3 3 3 3 3 3 3 3 3 3 3 3 3 3 3 3 3 3 3 3 3 3 3 3 3 3 3 3 3 3 3 3 3 3 3 3 3 3 3 3 3 3 3 3 3 3 3 3 3 3 3 3 3 3 3 3 3 3 3 3 3 3 3 3 3 3 3 3 3 3 3 3 3 3 3 3 3 3 3 3 3 3 </DataArray>
</Cells>
<PointData  Scalars="f_14"> 
<DataArray  type="Float64"  Name="f_14"  format="ascii">2.7152120328433256e-07  2.8220855447733259e-07  3.1499859099300999e-07  3.7211650534419607e-07  4.5741023838578701e-07  5.7656578742336401e-07  7.3742157876763065e-07  9.5039527855875265e-07  1.2290408572036249e-06  1.5907586333949323e-06  2.0576865110537850e-06  2.6578067951856264e-06  3.4263099390817597e-06  4.4072644426103310e-06  5.6556509930827588e-06  7.2398289136218635e-06  9.2445141464913880e-06  1.1774360423550437e-05  1.4958249016262927e-05  1.8954407540899585e-05  2.3956494714792351e-05  3.0200805669273862e-05  3.7974771326159200e-05  4.7626945278736323e-05  5.9578692355791416e-05  7.4337814277229428e-05  9.2514369129178113e-05  1.1483896228951141e-04  1.4218380630428356e-04  1.7558686531506023e-04  2.1627941510516074e-04  2.6571736168055091e-04  3.2561666841344458e-04  3.9799324291796929e-04  4.8520762865238311e-04  5.9001483131404964e-04  7.1561958490639016e-04  8.6573732536980499e-04  1.0446610893430084e-03  1.2573344904706503e-03  1.5094308443182431e-03  1.8074384141883561e-03  2.1587516329868725e-03  2.5717680201179888e-03  3.0559903569434103e-03  3.6221335098597729e-03  4.2822350973264253e-03  5.0497689876531256e-03  5.9397603901870490e-03  6.9689010666429017e-03  8.1556629454399513e-03  9.5204081746210270e-03  1.1085493403650892e-02  1.2875365847351600e-02  1.4916648463412754e-02  1.7238211375954420e-02  1.9871226509688915e-02  2.2849202270855545e-02  2.6207995030982895e-02  2.9985794146273743e-02  3.4223077287281675e-02  3.8962532968170149e-02  4.4248947358893877e-02  5.0129052742507056e-02  5.6651335347278488e-02  6.3865800741273002e-02  7.1823695525227924e-02  8.0577184695171611e-02  9.0178984763912520e-02  1.0068195352211633e-01  1.1213863817420898e-01  1.2460078448801341e-01  1.3811881053339736e-01  1.5274124953537169e-01  1.6851416730999874e-01  1.8548056066439739e-01  2.0367974400113820e-01  2.2314673214784822e-01  2.4391162811047520e-01  2.6599902499964712e-01  2.8942743178188796e-01  3.1420873274116179e-01  3.4034769058466491e-01  3.6784150297679785e-01  3.9667942192824102e-01  4.2684244489910195e-01  4.5830308569775274e-01  4.9102523227710432e-01  5.2496409736029692e-01  5.6006626648623958e-01  5.9626984657537441e-01  6.3350471650577456e-01  6.7169287949147038e-01  7.1074891530464135e-01  7.5058052861929481e-01  7.9108918801617523e-01  8.3217084851714740e-01  8.7371674895180151e-01  9.1561427403715434e-01  9.5774786980785909e-01  1.0000000000000000e+00  </DataArray> 
</PointData> 
</Piece>
</UnstructuredGrid>
</VTKFile>