<?xml version="1.0"?>
<VTKFile type="UnstructuredGrid"  version="0.1"  >
<UnstructuredGrid>
<Piece  NumberOfPoints="101" NumberOfCells="100">
<Points>
<DataArray  type="Float64"  NumberOfComponents="3"  format="ascii">0 0 0  0.001 0 0  0.002 0 0  0.003 0 0  0.004 0 0  0.005 0 0  0.006000000000000001 0 0  0.007000000000000001 0 0  0.008 0 0  0.009000000000000001 0 0  0.01 0 0  0.011 0 0  0.012 0 0  0.013 0 0  0.014 0 0  0.015 0 0  0.016 0 0  0.017 0 0  0.018 0 0  0.019 0 0  0.02 0 0  0.021 0 0  0.022 0 0  0.023 0 0  0.024 0 0  0.025 0 0  0.026 0 0  0.027 0 0  0.028 0 0  0.029 0 0  0.03 0 0  0.031 0 0  0.032 0 0  0.033 0 0  0.034 0 0  0.035 0 0  0.036 0 0  0.03700000000000001 0 0  0.03800000000000001 0 0  0.03900000000000001 0 0  0.04 0 0  0.04100000000000001 0 0  0.042 0 0  0.043 0 0  0.044 0 0  0.045 0 0  0.04600000000000001 0 0  0.047 0 0  0.04800000000000001 0 0  0.049 0 0  0.05 0 0  0.051 0 0  0.052 0 0  0.05300000000000001 0 0  0.05400000000000001 0 0  0.055 0 0  0.05600000000000001 0 0  0.057 0 0  0.05800000000000001 0 0  0.059 0 0  0.06 0 0  0.06100000000000001 0 0  0.062 0 0  0.063 0 0  0.064 0 0  0.065 0 0  0.066 0 0  0.067 0 0  0.068 0 0  0.06900000000000001 0 0  0.07000000000000001 0 0  0.07100000000000001 0 0  0.07200000000000001 0 0  0.07300000000000001 0 0  0.07400000000000001 0 0  0.075 0 0  0.07600000000000001 0 0  0.077 0 0  0.07800000000000001 0 0  0.079 0 0  0.08 0 0  0.081 0 0  0.08200000000000002 0 0  0.083 0 0  0.08400000000000001 0 0  0.08500000000000001 0 0  0.08599999999999999 0 0  0.08700000000000001 0 0  0.08800000000000001 0 0  0.08900000000000001 0 0  0.09 0 0  0.091 0 0  0.09200000000000001 0 0  0.09300000000000001 0 0  0.094 0 0  0.095 0 0  0.09600000000000002 0 0  0.09700000000000002 0 0  0.098 0 0  0.099 0 0  0.1 0 0  </DataArray>
</Points>
<Cells>
<DataArray  type="UInt32"  Name="connectivity"  format="ascii">0 1  1 2  2 3  3 4  4 5  5 6  6 7  7 8  8 9  9 10  10 11  11 12  12 13  13 14  14 15  15 16  16 17  17 18  18 19  19 20  20 21  21 22  22 23  23 24  24 25  25 26  26 27  27 28  28 29  29 30  30 31  31 32  32 33  33 34  34 35  35 36  36 37  37 38  38 39  39 40  40 41  41 42  42 43  43 44  44 45  45 46  46 47  47 48  48 49  49 50  50 51  51 52  52 53  53 54  54 55  55 56  56 57  57 58  58 59  59 60  60 61  61 62  62 63  63 64  64 65  65 66  66 67  67 68  68 69  69 70  70 71  71 72  72 73  73 74  74 75  75 76  76 77  77 78  78 79  79 80  80 81  81 82  82 83  83 84  84 85  85 86  86 87  87 88  88 89  89 90  90 91  91 92  92 93  93 94  94 95  95 96  96 97  97 98  98 99  99 100  </DataArray>
<DataArray  type="UInt32"  Name="offsets"  format="ascii">2 4 6 8 10 12 14 16 18 20 22 24 26 28 30 32 34 36 38 40 42 44 46 48 50 52 54 56 58 60 62 64 66 68 70 72 74 76 78 80 82 84 86 88 90 92 94 96 98 100 102 104 106 108 110 112 114 116 118 120 122 124 126 128 130 132 134 136 138 140 142 144 146 148 150 152 154 156 158 160 162 164 166 168 170 172 174 176 178 180 182 184 186 188 190 192 194 196 198 200 </DataArray>
<DataArray  type="UInt8"  Name="types"  format="ascii">3 3 3 3 3 3 3 3 3 3 3 3 3 3 3 3 3 3 3 3 3 3 3 3 3 3 3 3 3 3 3 3 3 3 3 3 3 3 3 3 3 3 3 3 3 3 3 3 3 3 3 3 3 3 3 3 3 3 3 3 3 3 3 3 3 3 3 3 3 3 3 3 3 3 3 3 3 3 3 3 3 3 3 3 3 3 3 3 3 3 3 3 3 3 3 3 3 3 3 3 </DataArray>
</Cells>
<PointData  Scalars="f_14"> 
<DataArray  type="Float64"  Name="f_14"  format="ascii">9.8240927969902215e-06  1.0045826663939836e-05  1.0719254251443697e-05  1.1869285365361471e-05  1.3538213246372081e-05  1.5786894197578607e-05  1.8696427654906264e-05  2.2370365355822942e-05  2.6937486528639730e-05  3.2555184330533946e-05  3.9413517093530548e-05  4.7739986266515890e-05  5.7805111224602716e-05  6.9928879293327886e-05  8.4488157322456259e-05  1.0192515883851372e-04  1.2275706807848258e-04  1.4758692890578232e-04  1.7711591255360640e-04  2.1215708312260603e-04  2.5365078354533648e-04  3.0268176705775576e-04  3.6049819980214272e-04  4.2853265871691757e-04  5.0842524501808900e-04  6.0204892700011750e-04  7.1153721622654875e-04  8.3931426808512546e-04  9.8812748079506424e-04  1.1610826459361389e-03  1.3616816781045395e-03  1.5938629211089469e-03  1.8620439929695701e-03  2.1711670917023041e-03  2.5267466383640811e-03  2.9349190830986536e-03  3.4024946440532958e-03  3.9370106882541979e-03  4.5467863981814589e-03  5.2409782983682159e-03  6.0296361435120630e-03  6.9237585941435403e-03  7.9353480288275012e-03  9.0774637643319389e-03  1.0364272878505425e-02  1.1811097756244804e-02  1.3434459408543546e-02  1.5252115549958980e-02  1.7283092362810094e-02  1.9547708828982706e-02  2.2067592474404058e-02  2.4865685349085544e-02  2.7966239059135110e-02  3.1394797678235664e-02  3.5178167396578662e-02  3.9344371816750531e-02  4.3922591879973924e-02  4.8943089503487129e-02  5.4437114131439833e-02  6.0436791547808497e-02  6.6974994470377830e-02  7.4085194639156027e-02  8.1801296329553352e-02  9.0157451458539595e-02  9.9187856708523842e-02  1.0892653336603321e-01  1.1940709085698009e-01  1.3066247525346936e-01  1.4272470432426959e-01  1.5562459099738554e-01  1.6939145739339431e-01  1.8405284186683699e-01  1.9963420175429980e-01  2.1615861476613235e-01  2.3364648216832437e-01  2.5211523707639288e-01  2.7157906131900494e-01  2.9204861442071428e-01  3.1353077829647469e-01  3.3602842124195154e-01  3.5954018474052440e-01  3.8406029648838758e-01  4.0957841286267344e-01  4.3607949382427957e-01  4.6354371295856828e-01  4.9194640501583803e-01  5.2125805292319760e-01  5.5144431580491948e-01  5.8246609907537361e-01  6.1427966716402560e-01  6.4683679890325008e-01  6.8008498506526305e-01  7.1396766698307679e-01  7.4842451464128523e-01  7.8339174208508322e-01  8.1880245747958280e-01  8.5458704466539825e-01  8.9067357260940550e-01  9.2698822874965869e-01  9.6345577188806419e-01  1.0000000000000000e+00  </DataArray> 
</PointData> 
</Piece>
</UnstructuredGrid>
</VTKFile>