<?xml version="1.0"?>
<VTKFile type="UnstructuredGrid"  version="0.1"  >
<UnstructuredGrid>
<Piece  NumberOfPoints="101" NumberOfCells="100">
<Points>
<DataArray  type="Float64"  NumberOfComponents="3"  format="ascii">0 0 0  0.001 0 0  0.002 0 0  0.003 0 0  0.004 0 0  0.005 0 0  0.006000000000000001 0 0  0.007000000000000001 0 0  0.008 0 0  0.009000000000000001 0 0  0.01 0 0  0.011 0 0  0.012 0 0  0.013 0 0  0.014 0 0  0.015 0 0  0.016 0 0  0.017 0 0  0.018 0 0  0.019 0 0  0.02 0 0  0.021 0 0  0.022 0 0  0.023 0 0  0.024 0 0  0.025 0 0  0.026 0 0  0.027 0 0  0.028 0 0  0.029 0 0  0.03 0 0  0.031 0 0  0.032 0 0  0.033 0 0  0.034 0 0  0.035 0 0  0.036 0 0  0.03700000000000001 0 0  0.03800000000000001 0 0  0.03900000000000001 0 0  0.04 0 0  0.04100000000000001 0 0  0.042 0 0  0.043 0 0  0.044 0 0  0.045 0 0  0.04600000000000001 0 0  0.047 0 0  0.04800000000000001 0 0  0.049 0 0  0.05 0 0  0.051 0 0  0.052 0 0  0.05300000000000001 0 0  0.05400000000000001 0 0  0.055 0 0  0.05600000000000001 0 0  0.057 0 0  0.05800000000000001 0 0  0.059 0 0  0.06 0 0  0.06100000000000001 0 0  0.062 0 0  0.063 0 0  0.064 0 0  0.065 0 0  0.066 0 0  0.067 0 0  0.068 0 0  0.06900000000000001 0 0  0.07000000000000001 0 0  0.07100000000000001 0 0  0.07200000000000001 0 0  0.07300000000000001 0 0  0.07400000000000001 0 0  0.075 0 0  0.07600000000000001 0 0  0.077 0 0  0.07800000000000001 0 0  0.079 0 0  0.08 0 0  0.081 0 0  0.08200000000000002 0 0  0.083 0 0  0.08400000000000001 0 0  0.08500000000000001 0 0  0.08599999999999999 0 0  0.08700000000000001 0 0  0.08800000000000001 0 0  0.08900000000000001 0 0  0.09 0 0  0.091 0 0  0.09200000000000001 0 0  0.09300000000000001 0 0  0.094 0 0  0.095 0 0  0.09600000000000002 0 0  0.09700000000000002 0 0  0.098 0 0  0.099 0 0  0.1 0 0  </DataArray>
</Points>
<Cells>
<DataArray  type="UInt32"  Name="connectivity"  format="ascii">0 1  1 2  2 3  3 4  4 5  5 6  6 7  7 8  8 9  9 10  10 11  11 12  12 13  13 14  14 15  15 16  16 17  17 18  18 19  19 20  20 21  21 22  22 23  23 24  24 25  25 26  26 27  27 28  28 29  29 30  30 31  31 32  32 33  33 34  34 35  35 36  36 37  37 38  38 39  39 40  40 41  41 42  42 43  43 44  44 45  45 46  46 47  47 48  48 49  49 50  50 51  51 52  52 53  53 54  54 55  55 56  56 57  57 58  58 59  59 60  60 61  61 62  62 63  63 64  64 65  65 66  66 67  67 68  68 69  69 70  70 71  71 72  72 73  73 74  74 75  75 76  76 77  77 78  78 79  79 80  80 81  81 82  82 83  83 84  84 85  85 86  86 87  87 88  88 89  89 90  90 91  91 92  92 93  93 94  94 95  95 96  96 97  97 98  98 99  99 100  </DataArray>
<DataArray  type="UInt32"  Name="offsets"  format="ascii">2 4 6 8 10 12 14 16 18 20 22 24 26 28 30 32 34 36 38 40 42 44 46 48 50 52 54 56 58 60 62 64 66 68 70 72 74 76 78 80 82 84 86 88 90 92 94 96 98 100 102 104 106 108 110 112 114 116 118 120 122 124 126 128 130 132 134 136 138 140 142 144 146 148 150 152 154 156 158 160 162 164 166 168 170 172 174 176 178 180 182 184 186 188 190 192 194 196 198 200 </DataArray>
<DataArray  type="UInt8"  Name="types"  format="ascii">3 3 3 3 3 3 3 3 3 3 3 3 3 3 3 3 3 3 3 3 3 3 3 3 3 3 3 3 3 3 3 3 3 3 3 3 3 3 3 3 3 3 3 3 3 3 3 3 3 3 3 3 3 3 3 3 3 3 3 3 3 3 3 3 3 3 3 3 3 3 3 3 3 3 3 3 3 3 3 3 3 3 3 3 3 3 3 3 3 3 3 3 3 3 3 3 3 3 3 3 </DataArray>
</Cells>
<PointData  Scalars="f_14"> 
<DataArray  type="Float64"  Name="f_14"  format="ascii">1.5132240949388537e-05  1.5447956087619075e-05  1.6405835298998507e-05  1.8038352552712758e-05  2.0400543828703249e-05  2.3571390514074350e-05  2.7655784842630619e-05  3.2787106024259850e-05  3.9130443830397849e-05  4.6886514452907098e-05  5.6296321399706488e-05  6.7646621982126443e-05  8.1276267522328562e-05  9.7583492683827442e-05  1.1703423620563832e-04  1.4017158168275705e-04  1.6762641274382369e-04  2.0012938187083506e-04  2.3852429600394000e-04  2.8378302477355226e-04  3.3702203847859236e-04  3.9952068254088839e-04  4.7274129285206887e-04  5.5835125191735591e-04  6.5824707870729485e-04  7.7458063536543331e-04  9.0978752109980557e-04  1.0666177074287956e-03  1.2481684491927967e-03  1.4579194821410582e-03  1.6997704902505604e-03  1.9780807940664898e-03  2.2977111751619306e-03  2.6640677112535083e-03  3.0831474516121700e-03  3.5615857132951698e-03  4.1067047256163509e-03  4.7265632934966727e-03  5.4300070903436550e-03  6.2267191284714326e-03  7.1272698904990455e-03  8.1431665394956585e-03  9.2869005598557024e-03  1.0571993116097994e-02  1.2013037354229501e-02  1.3625736811357651e-02  1.5426939045337588e-02  1.7434663548952171e-02  1.9668122974061196e-02  2.2147736661970136e-02  2.4895135458624484e-02  2.7933156788759950e-02  3.1285828973406461e-02  3.4978343801612251e-02  3.9037016411240896e-02  4.3489231596319539e-02  4.8363375740565547e-02  5.3688753678995026e-02  5.9495489912207059e-02  6.5814413740954661e-02  7.2676928051502596e-02  8.0114861664121101e-02  8.8160305356558055e-02  9.6845431889669265e-02  1.0620230059132424e-01  1.1626264729455638e-01  1.2705766067355420e-01  1.3861774627297679e-01  1.5097227977833391e-01  1.6414935132360570e-01  1.7817550287246051e-01  1.9307546093675826e-01  2.0887186710582334e-01  2.2558500904756129e-01  2.4323255480331415e-01  2.6182929332804422e-01  2.8138688432196918e-01  3.0191362045550146e-01  3.2341420510319963e-01  3.4588954867185429e-01  3.6933658653109347e-01  3.9374812143085419e-01  4.1911269311863220e-01  4.4541447765115505e-01  4.7263321863166019e-01  5.0074419229770273e-01  5.2971820803879066e-01  5.5952164554229367e-01  5.9011652935506376e-01  6.2146064121278899e-01  6.5350767003559829e-01  6.8620739902383943e-01  7.1950592881948450e-01  7.5334593523390181e-01  7.8766695958938460e-01  8.2240572928752220e-01  8.5749650580962722e-01  8.9287145698009862e-01  9.2846104998933976e-01  9.6419446138459775e-01  1.0000000000000000e+00  </DataArray> 
</PointData> 
</Piece>
</UnstructuredGrid>
</VTKFile>