<?xml version="1.0"?>
<VTKFile type="UnstructuredGrid"  version="0.1"  >
<UnstructuredGrid>
<Piece  NumberOfPoints="101" NumberOfCells="100">
<Points>
<DataArray  type="Float64"  NumberOfComponents="3"  format="ascii">0 0 0  0.001 0 0  0.002 0 0  0.003 0 0  0.004 0 0  0.005 0 0  0.006000000000000001 0 0  0.007000000000000001 0 0  0.008 0 0  0.009000000000000001 0 0  0.01 0 0  0.011 0 0  0.012 0 0  0.013 0 0  0.014 0 0  0.015 0 0  0.016 0 0  0.017 0 0  0.018 0 0  0.019 0 0  0.02 0 0  0.021 0 0  0.022 0 0  0.023 0 0  0.024 0 0  0.025 0 0  0.026 0 0  0.027 0 0  0.028 0 0  0.029 0 0  0.03 0 0  0.031 0 0  0.032 0 0  0.033 0 0  0.034 0 0  0.035 0 0  0.036 0 0  0.03700000000000001 0 0  0.03800000000000001 0 0  0.03900000000000001 0 0  0.04 0 0  0.04100000000000001 0 0  0.042 0 0  0.043 0 0  0.044 0 0  0.045 0 0  0.04600000000000001 0 0  0.047 0 0  0.04800000000000001 0 0  0.049 0 0  0.05 0 0  0.051 0 0  0.052 0 0  0.05300000000000001 0 0  0.05400000000000001 0 0  0.055 0 0  0.05600000000000001 0 0  0.057 0 0  0.05800000000000001 0 0  0.059 0 0  0.06 0 0  0.06100000000000001 0 0  0.062 0 0  0.063 0 0  0.064 0 0  0.065 0 0  0.066 0 0  0.067 0 0  0.068 0 0  0.06900000000000001 0 0  0.07000000000000001 0 0  0.07100000000000001 0 0  0.07200000000000001 0 0  0.07300000000000001 0 0  0.07400000000000001 0 0  0.075 0 0  0.07600000000000001 0 0  0.077 0 0  0.07800000000000001 0 0  0.079 0 0  0.08 0 0  0.081 0 0  0.08200000000000002 0 0  0.083 0 0  0.08400000000000001 0 0  0.08500000000000001 0 0  0.08599999999999999 0 0  0.08700000000000001 0 0  0.08800000000000001 0 0  0.08900000000000001 0 0  0.09 0 0  0.091 0 0  0.09200000000000001 0 0  0.09300000000000001 0 0  0.094 0 0  0.095 0 0  0.09600000000000002 0 0  0.09700000000000002 0 0  0.098 0 0  0.099 0 0  0.1 0 0  </DataArray>
</Points>
<Cells>
<DataArray  type="UInt32"  Name="connectivity"  format="ascii">0 1  1 2  2 3  3 4  4 5  5 6  6 7  7 8  8 9  9 10  10 11  11 12  12 13  13 14  14 15  15 16  16 17  17 18  18 19  19 20  20 21  21 22  22 23  23 24  24 25  25 26  26 27  27 28  28 29  29 30  30 31  31 32  32 33  33 34  34 35  35 36  36 37  37 38  38 39  39 40  40 41  41 42  42 43  43 44  44 45  45 46  46 47  47 48  48 49  49 50  50 51  51 52  52 53  53 54  54 55  55 56  56 57  57 58  58 59  59 60  60 61  61 62  62 63  63 64  64 65  65 66  66 67  67 68  68 69  69 70  70 71  71 72  72 73  73 74  74 75  75 76  76 77  77 78  78 79  79 80  80 81  81 82  82 83  83 84  84 85  85 86  86 87  87 88  88 89  89 90  90 91  91 92  92 93  93 94  94 95  95 96  96 97  97 98  98 99  99 100  </DataArray>
<DataArray  type="UInt32"  Name="offsets"  format="ascii">2 4 6 8 10 12 14 16 18 20 22 24 26 28 30 32 34 36 38 40 42 44 46 48 50 52 54 56 58 60 62 64 66 68 70 72 74 76 78 80 82 84 86 88 90 92 94 96 98 100 102 104 106 108 110 112 114 116 118 120 122 124 126 128 130 132 134 136 138 140 142 144 146 148 150 152 154 156 158 160 162 164 166 168 170 172 174 176 178 180 182 184 186 188 190 192 194 196 198 200 </DataArray>
<DataArray  type="UInt8"  Name="types"  format="ascii">3 3 3 3 3 3 3 3 3 3 3 3 3 3 3 3 3 3 3 3 3 3 3 3 3 3 3 3 3 3 3 3 3 3 3 3 3 3 3 3 3 3 3 3 3 3 3 3 3 3 3 3 3 3 3 3 3 3 3 3 3 3 3 3 3 3 3 3 3 3 3 3 3 3 3 3 3 3 3 3 3 3 3 3 3 3 3 3 3 3 3 3 3 3 3 3 3 3 3 3 </DataArray>
</Cells>
<PointData  Scalars="f_14"> 
<DataArray  type="Float64"  Name="f_14"  format="ascii">1.6845576360256141e-05  1.7190077453195340e-05  1.8235035339122925e-05  2.0015097031362316e-05  2.2588955612718081e-05  2.6040786625166228e-05  3.0482287587666623e-05  3.6055349150948313e-05  4.2935394441988872e-05  5.1335431099580312e-05  6.1510868313727953e-05  7.3765158801276663e-05  8.8456333009525847e-05  1.0600449985416302e-04  1.2690039486563655e-04  1.5171506261839443e-04  1.8111076560988629e-04  2.1585321618029980e-04  2.5682523143885091e-04  3.0504191328735545e-04  3.6166745628725329e-04  4.2803368506552419e-04  5.0566041994656733e-04  5.9627776426809823e-04  7.0185039911886725e-04  8.2460396075132391e-04  9.6705356240321596e-04  1.1320345054483356e-03  1.3227352044455510e-03  1.5427323265500353e-03  1.7960281177095327e-03  2.0870898559547479e-03  2.4208913358248342e-03  2.8029562475309256e-03  3.2394032699133326e-03  3.7369926477396477e-03  4.3031739716667934e-03  4.9461348236018833e-03  5.6748498917112656e-03  6.4991300985324215e-03  7.4296712232535308e-03  8.4781014360834125e-03  9.6570270997109759e-03  1.0980076131245546e-02  1.2461938158950142e-02  1.4118400652854522e-02  1.5966380158378674e-02  1.8023947718903238e-02  2.0310347538340941e-02  2.2846007909761913e-02  2.5652543422585217e-02  2.8752747460298388e-02  3.2170574014579706e-02  3.5931107871421800e-02  4.0060522271598648e-02  4.4586023212588519e-02  4.9535779642641289e-02  5.4938838900557715e-02  6.0825026877125599e-02  6.7224832515861588e-02  7.4169276431215347e-02  8.1689763600744744e-02  8.9817920282621574e-02  9.8585415519373804e-02  1.0802376781078886e-01  1.1816413777075882e-01  1.2903710782147987e-01  1.4067245022041924e-01  1.5309888495707794e-01  1.6634382929378111e-01  1.8043314095327817e-01  1.9539085717144500e-01  2.1123893203140323e-01  2.2799697467147922e-01  2.4568199110931147e-01  2.6430813254398772e-01  2.8388645308356664e-01  3.0442467989332861e-01  3.2592699876776399e-01  3.4839385809429330e-01  3.7182179409748473e-01  3.9620328012810785e-01  4.2152660259172497e-01  4.4777576589732571e-01  4.7493042854938722e-01  5.0296587220906996e-01  5.3185300521536882e-01  5.6155840168894067e-01  5.9204437694489120e-01  6.2326909952155107e-01  6.5518673969623287e-01  6.8774765391281645e-01  7.2089860409663475e-01  7.5458301038677256e-01  7.8874123538178487e-01  8.2331089757924880e-01  8.5822721129951773e-01  8.9342335002625739e-01  9.2883082977697995e-01  9.6437990884151858e-01  1.0000000000000000e+00  </DataArray> 
</PointData> 
</Piece>
</UnstructuredGrid>
</VTKFile>