<?xml version="1.0"?>
<VTKFile type="UnstructuredGrid"  version="0.1"  >
<UnstructuredGrid>
<Piece  NumberOfPoints="101" NumberOfCells="100">
<Points>
<DataArray  type="Float64"  NumberOfComponents="3"  format="ascii">0 0 0  0.001 0 0  0.002 0 0  0.003 0 0  0.004 0 0  0.005 0 0  0.006000000000000001 0 0  0.007000000000000001 0 0  0.008 0 0  0.009000000000000001 0 0  0.01 0 0  0.011 0 0  0.012 0 0  0.013 0 0  0.014 0 0  0.015 0 0  0.016 0 0  0.017 0 0  0.018 0 0  0.019 0 0  0.02 0 0  0.021 0 0  0.022 0 0  0.023 0 0  0.024 0 0  0.025 0 0  0.026 0 0  0.027 0 0  0.028 0 0  0.029 0 0  0.03 0 0  0.031 0 0  0.032 0 0  0.033 0 0  0.034 0 0  0.035 0 0  0.036 0 0  0.03700000000000001 0 0  0.03800000000000001 0 0  0.03900000000000001 0 0  0.04 0 0  0.04100000000000001 0 0  0.042 0 0  0.043 0 0  0.044 0 0  0.045 0 0  0.04600000000000001 0 0  0.047 0 0  0.04800000000000001 0 0  0.049 0 0  0.05 0 0  0.051 0 0  0.052 0 0  0.05300000000000001 0 0  0.05400000000000001 0 0  0.055 0 0  0.05600000000000001 0 0  0.057 0 0  0.05800000000000001 0 0  0.059 0 0  0.06 0 0  0.06100000000000001 0 0  0.062 0 0  0.063 0 0  0.064 0 0  0.065 0 0  0.066 0 0  0.067 0 0  0.068 0 0  0.06900000000000001 0 0  0.07000000000000001 0 0  0.07100000000000001 0 0  0.07200000000000001 0 0  0.07300000000000001 0 0  0.07400000000000001 0 0  0.075 0 0  0.07600000000000001 0 0  0.077 0 0  0.07800000000000001 0 0  0.079 0 0  0.08 0 0  0.081 0 0  0.08200000000000002 0 0  0.083 0 0  0.08400000000000001 0 0  0.08500000000000001 0 0  0.08599999999999999 0 0  0.08700000000000001 0 0  0.08800000000000001 0 0  0.08900000000000001 0 0  0.09 0 0  0.091 0 0  0.09200000000000001 0 0  0.09300000000000001 0 0  0.094 0 0  0.095 0 0  0.09600000000000002 0 0  0.09700000000000002 0 0  0.098 0 0  0.099 0 0  0.1 0 0  </DataArray>
</Points>
<Cells>
<DataArray  type="UInt32"  Name="connectivity"  format="ascii">0 1  1 2  2 3  3 4  4 5  5 6  6 7  7 8  8 9  9 10  10 11  11 12  12 13  13 14  14 15  15 16  16 17  17 18  18 19  19 20  20 21  21 22  22 23  23 24  24 25  25 26  26 27  27 28  28 29  29 30  30 31  31 32  32 33  33 34  34 35  35 36  36 37  37 38  38 39  39 40  40 41  41 42  42 43  43 44  44 45  45 46  46 47  47 48  48 49  49 50  50 51  51 52  52 53  53 54  54 55  55 56  56 57  57 58  58 59  59 60  60 61  61 62  62 63  63 64  64 65  65 66  66 67  67 68  68 69  69 70  70 71  71 72  72 73  73 74  74 75  75 76  76 77  77 78  78 79  79 80  80 81  81 82  82 83  83 84  84 85  85 86  86 87  87 88  88 89  89 90  90 91  91 92  92 93  93 94  94 95  95 96  96 97  97 98  98 99  99 100  </DataArray>
<DataArray  type="UInt32"  Name="offsets"  format="ascii">2 4 6 8 10 12 14 16 18 20 22 24 26 28 30 32 34 36 38 40 42 44 46 48 50 52 54 56 58 60 62 64 66 68 70 72 74 76 78 80 82 84 86 88 90 92 94 96 98 100 102 104 106 108 110 112 114 116 118 120 122 124 126 128 130 132 134 136 138 140 142 144 146 148 150 152 154 156 158 160 162 164 166 168 170 172 174 176 178 180 182 184 186 188 190 192 194 196 198 200 </DataArray>
<DataArray  type="UInt8"  Name="types"  format="ascii">3 3 3 3 3 3 3 3 3 3 3 3 3 3 3 3 3 3 3 3 3 3 3 3 3 3 3 3 3 3 3 3 3 3 3 3 3 3 3 3 3 3 3 3 3 3 3 3 3 3 3 3 3 3 3 3 3 3 3 3 3 3 3 3 3 3 3 3 3 3 3 3 3 3 3 3 3 3 3 3 3 3 3 3 3 3 3 3 3 3 3 3 3 3 3 3 3 3 3 3 </DataArray>
</Cells>
<PointData  Scalars="f_14"> 
<DataArray  type="Float64"  Name="f_14"  format="ascii">2.6185329848953399e-05  2.6677494420870570e-05  2.8168881213381516e-05  3.0704497854324080e-05  3.4360455655591725e-05  3.9245631283342171e-05  4.5504020570487977e-05  5.3317811779225293e-05  6.2911213176219374e-05  7.4555077135804817e-05  8.8572370074126310e-05  1.0534454426605205e-04  1.2531887392154984e-04  1.4901682370047065e-04  1.7704352301164475e-04  2.1009842384635274e-04  2.4898722339497108e-04  2.9463513513127061e-04  3.4810159324940318e-04  4.1059647511861491e-04  4.8349792458305849e-04  5.6837185527215380e-04  6.6699320738763067e-04  7.8136902348058485e-04  9.1376339831068950e-04  1.0667243447815638e-03  1.2431126019743866e-03  1.4461323922775281e-03  1.6793641123796716e-03  1.9467989173363332e-03  2.2528751279539778e-03  2.6025163593294300e-03  3.0011712325589395e-03  3.4548544924801320e-03  3.9701893119924630e-03  4.5544505182599521e-03  5.2156084282626311e-03  5.9623729311520978e-03  6.8042374032008662e-03  7.7515219884338000e-03  8.8154157250133723e-03  1.0008016944938934e-02  1.1342371323530566e-02  1.2832506906508749e-02  1.4493465397339285e-02  1.6341328947049948e-02  1.8393241654153448e-02  2.0667424954880779e-02  2.3183186064910564e-02  2.5960918624426992e-02  2.9022094699885953e-02  3.2389247309470619e-02  3.6085942665955939e-02  4.0136741371516120e-02  4.4567147854699868e-02  4.9403547410966787e-02  5.4673130295214631e-02  6.0403802417767896e-02  6.6624082314214905e-02  7.3362984193828890e-02  8.0649887020357802e-02  8.8514389741616004e-02  9.6986152959163421e-02  1.0609472751464341e-01  1.1586937066298397e-01  1.2633885070225029e-01  1.3753124113275342e-01  1.4947370562111473e-01  1.6219227524515675e-01  1.7571161968936763e-01  1.9005481424476506e-01  2.0524310463770115e-01  2.2129567186593538e-01  2.3822939935365875e-01  2.5605864484673324e-01  2.7479501955207009e-01  2.9444717707798296e-01  3.1502061475302062e-01  3.3651748988720448e-01  3.5893645349016157e-01  3.8227250387446110e-01  4.0651686244902618e-01  4.3165687384716234e-01  4.5767593233734444e-01  4.8455343623406427e-01  5.1226477176296947e-01  5.4078132754216557e-01  5.7007054052337702e-01  6.0009597389676905e-01  6.3081742710626465e-01  6.6219107775309305e-01  6.9416965478957315e-01  7.2670264202833312e-01  7.5973651062015213e-01  7.9321497879220459e-01  8.2707929679348235e-01  8.6126855467118257e-01  8.9572001020620162e-01  9.3036943407245809e-01  9.6515146905804572e-01  1.0000000000000000e+00  </DataArray> 
</PointData> 
</Piece>
</UnstructuredGrid>
</VTKFile>