<?xml version="1.0"?>
<VTKFile type="UnstructuredGrid"  version="0.1"  >
<UnstructuredGrid>
<Piece  NumberOfPoints="101" NumberOfCells="100">
<Points>
<DataArray  type="Float64"  NumberOfComponents="3"  format="ascii">0 0 0  0.001 0 0  0.002 0 0  0.003 0 0  0.004 0 0  0.005 0 0  0.006000000000000001 0 0  0.007000000000000001 0 0  0.008 0 0  0.009000000000000001 0 0  0.01 0 0  0.011 0 0  0.012 0 0  0.013 0 0  0.014 0 0  0.015 0 0  0.016 0 0  0.017 0 0  0.018 0 0  0.019 0 0  0.02 0 0  0.021 0 0  0.022 0 0  0.023 0 0  0.024 0 0  0.025 0 0  0.026 0 0  0.027 0 0  0.028 0 0  0.029 0 0  0.03 0 0  0.031 0 0  0.032 0 0  0.033 0 0  0.034 0 0  0.035 0 0  0.036 0 0  0.03700000000000001 0 0  0.03800000000000001 0 0  0.03900000000000001 0 0  0.04 0 0  0.04100000000000001 0 0  0.042 0 0  0.043 0 0  0.044 0 0  0.045 0 0  0.04600000000000001 0 0  0.047 0 0  0.04800000000000001 0 0  0.049 0 0  0.05 0 0  0.051 0 0  0.052 0 0  0.05300000000000001 0 0  0.05400000000000001 0 0  0.055 0 0  0.05600000000000001 0 0  0.057 0 0  0.05800000000000001 0 0  0.059 0 0  0.06 0 0  0.06100000000000001 0 0  0.062 0 0  0.063 0 0  0.064 0 0  0.065 0 0  0.066 0 0  0.067 0 0  0.068 0 0  0.06900000000000001 0 0  0.07000000000000001 0 0  0.07100000000000001 0 0  0.07200000000000001 0 0  0.07300000000000001 0 0  0.07400000000000001 0 0  0.075 0 0  0.07600000000000001 0 0  0.077 0 0  0.07800000000000001 0 0  0.079 0 0  0.08 0 0  0.081 0 0  0.08200000000000002 0 0  0.083 0 0  0.08400000000000001 0 0  0.08500000000000001 0 0  0.08599999999999999 0 0  0.08700000000000001 0 0  0.08800000000000001 0 0  0.08900000000000001 0 0  0.09 0 0  0.091 0 0  0.09200000000000001 0 0  0.09300000000000001 0 0  0.094 0 0  0.095 0 0  0.09600000000000002 0 0  0.09700000000000002 0 0  0.098 0 0  0.099 0 0  0.1 0 0  </DataArray>
</Points>
<Cells>
<DataArray  type="UInt32"  Name="connectivity"  format="ascii">0 1  1 2  2 3  3 4  4 5  5 6  6 7  7 8  8 9  9 10  10 11  11 12  12 13  13 14  14 15  15 16  16 17  17 18  18 19  19 20  20 21  21 22  22 23  23 24  24 25  25 26  26 27  27 28  28 29  29 30  30 31  31 32  32 33  33 34  34 35  35 36  36 37  37 38  38 39  39 40  40 41  41 42  42 43  43 44  44 45  45 46  46 47  47 48  48 49  49 50  50 51  51 52  52 53  53 54  54 55  55 56  56 57  57 58  58 59  59 60  60 61  61 62  62 63  63 64  64 65  65 66  66 67  67 68  68 69  69 70  70 71  71 72  72 73  73 74  74 75  75 76  76 77  77 78  78 79  79 80  80 81  81 82  82 83  83 84  84 85  85 86  86 87  87 88  88 89  89 90  90 91  91 92  92 93  93 94  94 95  95 96  96 97  97 98  98 99  99 100  </DataArray>
<DataArray  type="UInt32"  Name="offsets"  format="ascii">2 4 6 8 10 12 14 16 18 20 22 24 26 28 30 32 34 36 38 40 42 44 46 48 50 52 54 56 58 60 62 64 66 68 70 72 74 76 78 80 82 84 86 88 90 92 94 96 98 100 102 104 106 108 110 112 114 116 118 120 122 124 126 128 130 132 134 136 138 140 142 144 146 148 150 152 154 156 158 160 162 164 166 168 170 172 174 176 178 180 182 184 186 188 190 192 194 196 198 200 </DataArray>
<DataArray  type="UInt8"  Name="types"  format="ascii">3 3 3 3 3 3 3 3 3 3 3 3 3 3 3 3 3 3 3 3 3 3 3 3 3 3 3 3 3 3 3 3 3 3 3 3 3 3 3 3 3 3 3 3 3 3 3 3 3 3 3 3 3 3 3 3 3 3 3 3 3 3 3 3 3 3 3 3 3 3 3 3 3 3 3 3 3 3 3 3 3 3 3 3 3 3 3 3 3 3 3 3 3 3 3 3 3 3 3 3 </DataArray>
</Cells>
<PointData  Scalars="f_14"> 
<DataArray  type="Float64"  Name="f_14"  format="ascii">8.4577723445938138e-13  9.5906437600556229e-13  1.3271631222088260e-12  2.0412733015443512e-12  3.2763780994383976e-12  5.3307238139581917e-12  8.6920570504652240e-12  1.4143974510784976e-11  2.2933397806896391e-11  3.7031534627946673e-11  5.9537579492012354e-11  9.5299510067050328e-11  1.5186348711974508e-10  2.4091806557360994e-10  3.8047949988884612e-10  5.9818095417539265e-10  9.3619696494823520e-10  1.4585767528994353e-09  2.2621059828166303e-09  3.4923076056301287e-09  5.3668847555338853e-09  8.2098784178964791e-09  1.2501161797634231e-08  1.8947757738125945e-08  2.8586024094318743e-08  4.2927238369194697e-08  6.4163829584615834e-08  9.5459839689611736e-08  1.4135763999363818e-07  2.0834409609433732e-07  3.0563403099594242e-07  4.4624791512941554e-07  6.4848534247214082e-07  9.3792737718135954e-07  1.3501408479191593e-06  1.9343079355259295e-06  2.7580669792608003e-06  3.9139275521554203e-06  5.5277169067160162e-06  7.7696283041913162e-06  1.0868576875247990e-05  1.5130727622405325e-05  2.0963244574434140e-05  2.8904520749994900e-05  3.9662385121311219e-05  5.4162043220144600e-05  7.3605788325347706e-05  9.9546813597034875e-05  1.3397975215493824e-04  1.7945085826402948e-04  2.3919100057782222e-04  3.1727484528346858e-04  4.1880973569529805e-04  5.5015779336367642e-04  7.1919463785904481e-04  9.3560780843100733e-04  1.2112374291058979e-03  1.5604608478030403e-03  2.0006218605543389e-03  2.5525036703860442e-03  3.2408429026783607e-03  4.0948797940997400e-03  5.1489370975323660e-03  6.4430173298710130e-03  8.0234047883806833e-03  9.9432553589910311e-03  1.2263153652532525e-02  1.5051613580589613e-02  1.8385495300096758e-02  2.2350308720610224e-02  2.7040371706349223e-02  3.2558789953872715e-02  3.9017225522321605e-02  4.6535422358393738e-02  5.5240460083646171e-02  6.5265711940362361e-02  7.6749489201953083e-02  8.9833362541403963e-02  1.0466016071877807e-01  1.2137165829412587e-01  1.4010597658479412e-01  1.6099473534878320e-01  1.8416000617387387e-01  2.0971113169012273e-01  2.3774148684871102e-01  2.6832526894451414e-01  3.0151441113475957e-01  3.3733571930291639e-01  3.7578833370719517e-01  4.1684161453821245e-01  4.6043354405645132e-01  5.0646972734574836e-01  5.5482305907289664e-01  6.0533410537118748e-01  6.5781222866265121e-01  7.1203745968484888e-01  7.6776309613455385e-01  8.2471898223520257e-01  8.8261539928793376e-01  9.4114747498562445e-01  1.0000000000000000e+00  </DataArray> 
</PointData> 
</Piece>
</UnstructuredGrid>
</VTKFile>