<?xml version="1.0"?>
<VTKFile type="UnstructuredGrid"  version="0.1"  >
<UnstructuredGrid>
<Piece  NumberOfPoints="101" NumberOfCells="100">
<Points>
<DataArray  type="Float64"  NumberOfComponents="3"  format="ascii">0 0 0  0.001 0 0  0.002 0 0  0.003 0 0  0.004 0 0  0.005 0 0  0.006000000000000001 0 0  0.007000000000000001 0 0  0.008 0 0  0.009000000000000001 0 0  0.01 0 0  0.011 0 0  0.012 0 0  0.013 0 0  0.014 0 0  0.015 0 0  0.016 0 0  0.017 0 0  0.018 0 0  0.019 0 0  0.02 0 0  0.021 0 0  0.022 0 0  0.023 0 0  0.024 0 0  0.025 0 0  0.026 0 0  0.027 0 0  0.028 0 0  0.029 0 0  0.03 0 0  0.031 0 0  0.032 0 0  0.033 0 0  0.034 0 0  0.035 0 0  0.036 0 0  0.03700000000000001 0 0  0.03800000000000001 0 0  0.03900000000000001 0 0  0.04 0 0  0.04100000000000001 0 0  0.042 0 0  0.043 0 0  0.044 0 0  0.045 0 0  0.04600000000000001 0 0  0.047 0 0  0.04800000000000001 0 0  0.049 0 0  0.05 0 0  0.051 0 0  0.052 0 0  0.05300000000000001 0 0  0.05400000000000001 0 0  0.055 0 0  0.05600000000000001 0 0  0.057 0 0  0.05800000000000001 0 0  0.059 0 0  0.06 0 0  0.06100000000000001 0 0  0.062 0 0  0.063 0 0  0.064 0 0  0.065 0 0  0.066 0 0  0.067 0 0  0.068 0 0  0.06900000000000001 0 0  0.07000000000000001 0 0  0.07100000000000001 0 0  0.07200000000000001 0 0  0.07300000000000001 0 0  0.07400000000000001 0 0  0.075 0 0  0.07600000000000001 0 0  0.077 0 0  0.07800000000000001 0 0  0.079 0 0  0.08 0 0  0.081 0 0  0.08200000000000002 0 0  0.083 0 0  0.08400000000000001 0 0  0.08500000000000001 0 0  0.08599999999999999 0 0  0.08700000000000001 0 0  0.08800000000000001 0 0  0.08900000000000001 0 0  0.09 0 0  0.091 0 0  0.09200000000000001 0 0  0.09300000000000001 0 0  0.094 0 0  0.095 0 0  0.09600000000000002 0 0  0.09700000000000002 0 0  0.098 0 0  0.099 0 0  0.1 0 0  </DataArray>
</Points>
<Cells>
<DataArray  type="UInt32"  Name="connectivity"  format="ascii">0 1  1 2  2 3  3 4  4 5  5 6  6 7  7 8  8 9  9 10  10 11  11 12  12 13  13 14  14 15  15 16  16 17  17 18  18 19  19 20  20 21  21 22  22 23  23 24  24 25  25 26  26 27  27 28  28 29  29 30  30 31  31 32  32 33  33 34  34 35  35 36  36 37  37 38  38 39  39 40  40 41  41 42  42 43  43 44  44 45  45 46  46 47  47 48  48 49  49 50  50 51  51 52  52 53  53 54  54 55  55 56  56 57  57 58  58 59  59 60  60 61  61 62  62 63  63 64  64 65  65 66  66 67  67 68  68 69  69 70  70 71  71 72  72 73  73 74  74 75  75 76  76 77  77 78  78 79  79 80  80 81  81 82  82 83  83 84  84 85  85 86  86 87  87 88  88 89  89 90  90 91  91 92  92 93  93 94  94 95  95 96  96 97  97 98  98 99  99 100  </DataArray>
<DataArray  type="UInt32"  Name="offsets"  format="ascii">2 4 6 8 10 12 14 16 18 20 22 24 26 28 30 32 34 36 38 40 42 44 46 48 50 52 54 56 58 60 62 64 66 68 70 72 74 76 78 80 82 84 86 88 90 92 94 96 98 100 102 104 106 108 110 112 114 116 118 120 122 124 126 128 130 132 134 136 138 140 142 144 146 148 150 152 154 156 158 160 162 164 166 168 170 172 174 176 178 180 182 184 186 188 190 192 194 196 198 200 </DataArray>
<DataArray  type="UInt8"  Name="types"  format="ascii">3 3 3 3 3 3 3 3 3 3 3 3 3 3 3 3 3 3 3 3 3 3 3 3 3 3 3 3 3 3 3 3 3 3 3 3 3 3 3 3 3 3 3 3 3 3 3 3 3 3 3 3 3 3 3 3 3 3 3 3 3 3 3 3 3 3 3 3 3 3 3 3 3 3 3 3 3 3 3 3 3 3 3 3 3 3 3 3 3 3 3 3 3 3 3 3 3 3 3 3 </DataArray>
</Cells>
<PointData  Scalars="f_14"> 
<DataArray  type="Float64"  Name="f_14"  format="ascii">1.9943331999843471e-09  2.1334032280753896e-09  2.5680693103332333e-09  3.3526322206314260e-09  4.5842189648583651e-09  6.4133763549966632e-09  9.0602635354273344e-09  1.2837928119371462e-08  1.8184758266471730e-08  2.5708961797592762e-08  3.6248882277355385e-08  5.0954179691321036e-08  7.1394450780339970e-08  9.9703826695460936e-08  1.3877256602504405e-07  1.9249978203447642e-07  2.6612534963140888e-07  3.6666390134204301e-07  5.0346984210986886e-07  6.8896972044749783e-07  9.3960735135586549e-07  1.2770580907944339e-06  1.7297819415197580e-06  2.3350010855768982e-06  3.1412063754141581e-06  4.2113196778201286e-06  5.6266651644803161e-06  7.4919330839780233e-06  9.9413546086201627e-06  1.3146346347937356e-05  1.7324928295892692e-05  2.2753269443591114e-05  2.9779770987498444e-05  3.8842157718276643e-05  5.0488113232866519e-05  6.5400063177911339e-05  8.4424781506230813e-05  1.0860856593888774e-04  1.3923879816803860e-04  1.7789276891364602e-04  2.2649470422719367e-04  2.8738197321995641e-04  3.6338148381450086e-04  4.5789727666348848e-04  5.7501030195390159e-04  7.1959130284443183e-04  8.9742762587312211e-04  1.1153646258127573e-03  1.3814621232893691e-03  1.7051661016414356e-03  2.0974954894758800e-03  2.5712434629603072e-03  3.1411922146415091e-03  3.8243395733325823e-03  4.6401352249823237e-03  5.6107235833206251e-03  6.7611896010718467e-03  8.1198030113426405e-03  9.7182556624678049e-03  1.1591885780638897e-02  1.3779882189940647e-02  1.6325460769971364e-02  1.9276004771607284e-02  2.2683160079062341e-02  2.6602876140325155e-02  3.1095383127905215e-02  3.6225095976059767e-02  4.2060436304924717e-02  4.8673563917091010e-02  5.6140010562258327e-02  6.4538210026031134e-02  7.3948920314442404e-02  8.4454535768840405e-02  9.6138289335131494e-02  1.0908334789120366e-01  1.2337180645582876e-01  1.3908359019581040e-01  1.5629527633604148e-01  1.7507885126762826e-01  1.9550042124042671e-01  2.1761889790952180e-01  2.4148468256816316e-01  2.6713837503130644e-01  2.9460953472821488e-01  3.2391552252377059e-01  3.5506045203499770e-01  3.8803427867982393e-01  4.2281205335015293e-01  4.5935336542806032e-01  4.9760199687800855e-01  5.3748580539461865e-01  5.7891685013986183e-01  6.2179176856883744e-01  6.6599240734888643e-01  7.1138670457383124e-01  7.5782981453195408e-01  8.0516546038241321e-01  8.5322749441428924e-01  9.0184164028705327e-01  9.5082738695329871e-01  1.0000000000000000e+00  </DataArray> 
</PointData> 
</Piece>
</UnstructuredGrid>
</VTKFile>