<?xml version="1.0"?>
<VTKFile type="UnstructuredGrid"  version="0.1"  >
<UnstructuredGrid>
<Piece  NumberOfPoints="101" NumberOfCells="100">
<Points>
<DataArray  type="Float64"  NumberOfComponents="3"  format="ascii">0 0 0  0.001 0 0  0.002 0 0  0.003 0 0  0.004 0 0  0.005 0 0  0.006000000000000001 0 0  0.007000000000000001 0 0  0.008 0 0  0.009000000000000001 0 0  0.01 0 0  0.011 0 0  0.012 0 0  0.013 0 0  0.014 0 0  0.015 0 0  0.016 0 0  0.017 0 0  0.018 0 0  0.019 0 0  0.02 0 0  0.021 0 0  0.022 0 0  0.023 0 0  0.024 0 0  0.025 0 0  0.026 0 0  0.027 0 0  0.028 0 0  0.029 0 0  0.03 0 0  0.031 0 0  0.032 0 0  0.033 0 0  0.034 0 0  0.035 0 0  0.036 0 0  0.03700000000000001 0 0  0.03800000000000001 0 0  0.03900000000000001 0 0  0.04 0 0  0.04100000000000001 0 0  0.042 0 0  0.043 0 0  0.044 0 0  0.045 0 0  0.04600000000000001 0 0  0.047 0 0  0.04800000000000001 0 0  0.049 0 0  0.05 0 0  0.051 0 0  0.052 0 0  0.05300000000000001 0 0  0.05400000000000001 0 0  0.055 0 0  0.05600000000000001 0 0  0.057 0 0  0.05800000000000001 0 0  0.059 0 0  0.06 0 0  0.06100000000000001 0 0  0.062 0 0  0.063 0 0  0.064 0 0  0.065 0 0  0.066 0 0  0.067 0 0  0.068 0 0  0.06900000000000001 0 0  0.07000000000000001 0 0  0.07100000000000001 0 0  0.07200000000000001 0 0  0.07300000000000001 0 0  0.07400000000000001 0 0  0.075 0 0  0.07600000000000001 0 0  0.077 0 0  0.07800000000000001 0 0  0.079 0 0  0.08 0 0  0.081 0 0  0.08200000000000002 0 0  0.083 0 0  0.08400000000000001 0 0  0.08500000000000001 0 0  0.08599999999999999 0 0  0.08700000000000001 0 0  0.08800000000000001 0 0  0.08900000000000001 0 0  0.09 0 0  0.091 0 0  0.09200000000000001 0 0  0.09300000000000001 0 0  0.094 0 0  0.095 0 0  0.09600000000000002 0 0  0.09700000000000002 0 0  0.098 0 0  0.099 0 0  0.1 0 0  </DataArray>
</Points>
<Cells>
<DataArray  type="UInt32"  Name="connectivity"  format="ascii">0 1  1 2  2 3  3 4  4 5  5 6  6 7  7 8  8 9  9 10  10 11  11 12  12 13  13 14  14 15  15 16  16 17  17 18  18 19  19 20  20 21  21 22  22 23  23 24  24 25  25 26  26 27  27 28  28 29  29 30  30 31  31 32  32 33  33 34  34 35  35 36  36 37  37 38  38 39  39 40  40 41  41 42  42 43  43 44  44 45  45 46  46 47  47 48  48 49  49 50  50 51  51 52  52 53  53 54  54 55  55 56  56 57  57 58  58 59  59 60  60 61  61 62  62 63  63 64  64 65  65 66  66 67  67 68  68 69  69 70  70 71  71 72  72 73  73 74  74 75  75 76  76 77  77 78  78 79  79 80  80 81  81 82  82 83  83 84  84 85  85 86  86 87  87 88  88 89  89 90  90 91  91 92  92 93  93 94  94 95  95 96  96 97  97 98  98 99  99 100  </DataArray>
<DataArray  type="UInt32"  Name="offsets"  format="ascii">2 4 6 8 10 12 14 16 18 20 22 24 26 28 30 32 34 36 38 40 42 44 46 48 50 52 54 56 58 60 62 64 66 68 70 72 74 76 78 80 82 84 86 88 90 92 94 96 98 100 102 104 106 108 110 112 114 116 118 120 122 124 126 128 130 132 134 136 138 140 142 144 146 148 150 152 154 156 158 160 162 164 166 168 170 172 174 176 178 180 182 184 186 188 190 192 194 196 198 200 </DataArray>
<DataArray  type="UInt8"  Name="types"  format="ascii">3 3 3 3 3 3 3 3 3 3 3 3 3 3 3 3 3 3 3 3 3 3 3 3 3 3 3 3 3 3 3 3 3 3 3 3 3 3 3 3 3 3 3 3 3 3 3 3 3 3 3 3 3 3 3 3 3 3 3 3 3 3 3 3 3 3 3 3 3 3 3 3 3 3 3 3 3 3 3 3 3 3 3 3 3 3 3 3 3 3 3 3 3 3 3 3 3 3 3 3 </DataArray>
</Cells>
<PointData  Scalars="f_14"> 
<DataArray  type="Float64"  Name="f_14"  format="ascii">1.1857710503787956e-06  1.2235998731915676e-06  1.3391382559389841e-06  1.5386318547644747e-06  1.8327926786159047e-06  2.2372630603680959e-06  2.7732855863317102e-06  3.4685997576441715e-06  4.3585926635105299e-06  5.4877378714456933e-06  6.9113641651391429e-06  8.6978037600237017e-06  1.0930978263616812e-05  1.3713489972884479e-05  1.7170296148928063e-05  2.1453054695314385e-05  2.6745241181867530e-05  3.3268149364178470e-05  4.1287900181055483e-05  5.1123597560208108e-05  6.3156783075855465e-05  7.7842355381140278e-05  9.5721134129623384e-05  1.1743426149111564e-04  1.4373964698161871e-04  1.7553067272216857e-04  2.1385738590452160e-04  2.5995041259032725e-04  3.1524783135299572e-04  3.8142524597040693e-04  4.6042929261467017e-04  5.5451480793436512e-04  6.6628586921882395e-04  7.9874089558468577e-04  9.5532196894154969e-04  1.1399684945074078e-03  1.3571752720367733e-03  1.6120549899579235e-03  1.9104050846706073e-03  2.2587788258676827e-03  2.6645603956460227e-03  3.1360436243351290e-03  3.6825139296493776e-03  4.3143328785389132e-03  5.0430246539138121e-03  5.8813635625846435e-03  6.8434615680638610e-03  7.9448546745185915e-03  9.2025868288292244e-03  1.0635289849516946e-02  1.2263257737833483e-02  1.4108513581541594e-02  1.6194867130213439e-02  1.8547961006890570e-02  2.1195303429565104e-02  2.4166285252155115e-02  2.7492179103462296e-02  3.1206118408888560e-02  3.5343054128050014e-02  3.9939687136017692e-02  4.5034374320307567e-02  5.0667006662722398e-02  5.6878857826593292e-02  6.3712402076650673e-02  7.1211100720218967e-02  7.9419156672881464e-02  8.8381237215930511e-02  9.8142165522045105e-02  1.0874658207340074e-01  1.2023857767497546e-01  1.3266130036586096e-01  1.4605653914224601e-01  1.6046428801554302e-01  1.7592229452500399e-01  1.9246559739251445e-01  2.1012605853400512e-01  2.2893189511290338e-01  2.4890721772233898e-01  2.7007158110113538e-01  2.9243955401163441e-01  3.1602031502432965e-01  3.4081728095592712e-01  3.6682777458696453e-01  3.9404273803789047e-01  4.2244649780678617e-01  4.5201658696871005e-01  4.8272362941012009e-01  5.1453129022905697e-01  5.4739629558295044e-01  5.8126852432413101e-01  6.1609117274401715e-01  6.5180099266873548e-01  6.8832860203160573e-01  7.2559886591321843e-01  7.6353134491037000e-01  8.0204080659413146e-01  8.4103779476788609e-01  8.8042925026070884e-01  9.2011917611112048e-01  9.6000933923037279e-01  1.0000000000000000e+00  </DataArray> 
</PointData> 
</Piece>
</UnstructuredGrid>
</VTKFile>