<?xml version="1.0"?>
<VTKFile type="UnstructuredGrid"  version="0.1"  >
<UnstructuredGrid>
<Piece  NumberOfPoints="101" NumberOfCells="100">
<Points>
<DataArray  type="Float64"  NumberOfComponents="3"  format="ascii">0 0 0  0.001 0 0  0.002 0 0  0.003 0 0  0.004 0 0  0.005 0 0  0.006000000000000001 0 0  0.007000000000000001 0 0  0.008 0 0  0.009000000000000001 0 0  0.01 0 0  0.011 0 0  0.012 0 0  0.013 0 0  0.014 0 0  0.015 0 0  0.016 0 0  0.017 0 0  0.018 0 0  0.019 0 0  0.02 0 0  0.021 0 0  0.022 0 0  0.023 0 0  0.024 0 0  0.025 0 0  0.026 0 0  0.027 0 0  0.028 0 0  0.029 0 0  0.03 0 0  0.031 0 0  0.032 0 0  0.033 0 0  0.034 0 0  0.035 0 0  0.036 0 0  0.03700000000000001 0 0  0.03800000000000001 0 0  0.03900000000000001 0 0  0.04 0 0  0.04100000000000001 0 0  0.042 0 0  0.043 0 0  0.044 0 0  0.045 0 0  0.04600000000000001 0 0  0.047 0 0  0.04800000000000001 0 0  0.049 0 0  0.05 0 0  0.051 0 0  0.052 0 0  0.05300000000000001 0 0  0.05400000000000001 0 0  0.055 0 0  0.05600000000000001 0 0  0.057 0 0  0.05800000000000001 0 0  0.059 0 0  0.06 0 0  0.06100000000000001 0 0  0.062 0 0  0.063 0 0  0.064 0 0  0.065 0 0  0.066 0 0  0.067 0 0  0.068 0 0  0.06900000000000001 0 0  0.07000000000000001 0 0  0.07100000000000001 0 0  0.07200000000000001 0 0  0.07300000000000001 0 0  0.07400000000000001 0 0  0.075 0 0  0.07600000000000001 0 0  0.077 0 0  0.07800000000000001 0 0  0.079 0 0  0.08 0 0  0.081 0 0  0.08200000000000002 0 0  0.083 0 0  0.08400000000000001 0 0  0.08500000000000001 0 0  0.08599999999999999 0 0  0.08700000000000001 0 0  0.08800000000000001 0 0  0.08900000000000001 0 0  0.09 0 0  0.091 0 0  0.09200000000000001 0 0  0.09300000000000001 0 0  0.094 0 0  0.095 0 0  0.09600000000000002 0 0  0.09700000000000002 0 0  0.098 0 0  0.099 0 0  0.1 0 0  </DataArray>
</Points>
<Cells>
<DataArray  type="UInt32"  Name="connectivity"  format="ascii">0 1  1 2  2 3  3 4  4 5  5 6  6 7  7 8  8 9  9 10  10 11  11 12  12 13  13 14  14 15  15 16  16 17  17 18  18 19  19 20  20 21  21 22  22 23  23 24  24 25  25 26  26 27  27 28  28 29  29 30  30 31  31 32  32 33  33 34  34 35  35 36  36 37  37 38  38 39  39 40  40 41  41 42  42 43  43 44  44 45  45 46  46 47  47 48  48 49  49 50  50 51  51 52  52 53  53 54  54 55  55 56  56 57  57 58  58 59  59 60  60 61  61 62  62 63  63 64  64 65  65 66  66 67  67 68  68 69  69 70  70 71  71 72  72 73  73 74  74 75  75 76  76 77  77 78  78 79  79 80  80 81  81 82  82 83  83 84  84 85  85 86  86 87  87 88  88 89  89 90  90 91  91 92  92 93  93 94  94 95  95 96  96 97  97 98  98 99  99 100  </DataArray>
<DataArray  type="UInt32"  Name="offsets"  format="ascii">2 4 6 8 10 12 14 16 18 20 22 24 26 28 30 32 34 36 38 40 42 44 46 48 50 52 54 56 58 60 62 64 66 68 70 72 74 76 78 80 82 84 86 88 90 92 94 96 98 100 102 104 106 108 110 112 114 116 118 120 122 124 126 128 130 132 134 136 138 140 142 144 146 148 150 152 154 156 158 160 162 164 166 168 170 172 174 176 178 180 182 184 186 188 190 192 194 196 198 200 </DataArray>
<DataArray  type="UInt8"  Name="types"  format="ascii">3 3 3 3 3 3 3 3 3 3 3 3 3 3 3 3 3 3 3 3 3 3 3 3 3 3 3 3 3 3 3 3 3 3 3 3 3 3 3 3 3 3 3 3 3 3 3 3 3 3 3 3 3 3 3 3 3 3 3 3 3 3 3 3 3 3 3 3 3 3 3 3 3 3 3 3 3 3 3 3 3 3 3 3 3 3 3 3 3 3 3 3 3 3 3 3 3 3 3 3 </DataArray>
</Cells>
<PointData  Scalars="f_14"> 
<DataArray  type="Float64"  Name="f_14"  format="ascii">3.5514188119206106e-04  3.5885953197696779e-04  3.7007014125186769e-04  3.8894720814569410e-04  4.1578165912074664e-04  4.5098448986799071e-04  4.9509046385140011e-04  5.4876286702599934e-04  6.1279931759804240e-04  6.8813862865426333e-04  7.7586871998042552e-04  8.7723557334112075e-04  9.9365322283093377e-04  1.1267147685648890e-03  1.2782043978928216e-03  1.4501103934443278e-03  1.6446391015927024e-03  1.8642298283313018e-03  2.1115706220580475e-03  2.3896148943484542e-03  2.7015988204625594e-03  3.0510594510880359e-03  3.4418534556968456e-03  3.8781764059286554e-03  4.3645824946698039e-03  4.9060045730491934e-03  5.5077743735175155e-03  6.1756427726283357e-03  6.9157999322330081e-03  7.7348951426895645e-03  8.6400561765418837e-03  9.6389079461413202e-03  1.0739590244068477e-02  1.1950774331195109e-02  1.3281678124046840e-02  1.4742079721042517e-02  1.6342328996461562e-02  1.8093356981901575e-02  2.0006682747813833e-02  2.2094417492725348e-02  2.4369265545250894e-02  2.6844521984237851e-02  2.9534066585630750e-02  3.2452353811135072e-02  3.5614398563719722e-02  3.9035757448624669e-02  4.2732505295993789e-02  4.6721206722658747e-02  5.1018882536048783e-02  5.5642970812719142e-02  6.0611282517579454e-02  6.5941951567478466e-02  7.1653379284250654e-02  7.7764173227455782e-02  8.4293080445599036e-02  9.1258915236292426e-02  9.8680481560227587e-02  1.0657649031053605e-01  1.1496547169761684e-01  1.2386568306924167e-01  1.3329501254611217e-01  1.4327087891335241e-01  1.5381012826799947e-01  1.6492892798064474e-01  1.7664265858522590e-01  1.8896580426380369e-01  2.0191184264217371e-01  2.1549313465660938e-01  2.2972081529112467e-01  2.4460468601766772e-01  2.6015310979791140e-01  2.7637290952415849e-01  2.9326927078775678e-01  3.1084564986582958e-01  3.2910368781065436e-01  3.4804313151036925e-01  3.6766176256463495e-01  3.8795533478434019e-01  4.0891752108046220e-01  4.3053987045387132e-01  4.5281177573556797e-01  4.7572045265586016e-01  4.9925093074195598e-01  5.2338605645693181e-01  5.4810650889985613e-01  5.7339082828784771e-01  5.9921545733702775e-01  6.2555479555171256e-01  6.5238126632094984e-01  6.7966539660984171e-01  7.0737590892119273e-01  7.3547982509224874e-01  7.6394258138282334e-01  7.9272815420631848e-01  8.2179919575519533e-01  8.5111717867861680e-01  8.8064254888335081e-01  9.1033488545072405e-01  9.4015306659333875e-01  9.7005544051634529e-01  1.0000000000000000e+00  </DataArray> 
</PointData> 
</Piece>
</UnstructuredGrid>
</VTKFile>