<?xml version="1.0"?>
<VTKFile type="UnstructuredGrid"  version="0.1"  >
<UnstructuredGrid>
<Piece  NumberOfPoints="101" NumberOfCells="100">
<Points>
<DataArray  type="Float64"  NumberOfComponents="3"  format="ascii">0 0 0  0.001 0 0  0.002 0 0  0.003 0 0  0.004 0 0  0.005 0 0  0.006000000000000001 0 0  0.007000000000000001 0 0  0.008 0 0  0.009000000000000001 0 0  0.01 0 0  0.011 0 0  0.012 0 0  0.013 0 0  0.014 0 0  0.015 0 0  0.016 0 0  0.017 0 0  0.018 0 0  0.019 0 0  0.02 0 0  0.021 0 0  0.022 0 0  0.023 0 0  0.024 0 0  0.025 0 0  0.026 0 0  0.027 0 0  0.028 0 0  0.029 0 0  0.03 0 0  0.031 0 0  0.032 0 0  0.033 0 0  0.034 0 0  0.035 0 0  0.036 0 0  0.03700000000000001 0 0  0.03800000000000001 0 0  0.03900000000000001 0 0  0.04 0 0  0.04100000000000001 0 0  0.042 0 0  0.043 0 0  0.044 0 0  0.045 0 0  0.04600000000000001 0 0  0.047 0 0  0.04800000000000001 0 0  0.049 0 0  0.05 0 0  0.051 0 0  0.052 0 0  0.05300000000000001 0 0  0.05400000000000001 0 0  0.055 0 0  0.05600000000000001 0 0  0.057 0 0  0.05800000000000001 0 0  0.059 0 0  0.06 0 0  0.06100000000000001 0 0  0.062 0 0  0.063 0 0  0.064 0 0  0.065 0 0  0.066 0 0  0.067 0 0  0.068 0 0  0.06900000000000001 0 0  0.07000000000000001 0 0  0.07100000000000001 0 0  0.07200000000000001 0 0  0.07300000000000001 0 0  0.07400000000000001 0 0  0.075 0 0  0.07600000000000001 0 0  0.077 0 0  0.07800000000000001 0 0  0.079 0 0  0.08 0 0  0.081 0 0  0.08200000000000002 0 0  0.083 0 0  0.08400000000000001 0 0  0.08500000000000001 0 0  0.08599999999999999 0 0  0.08700000000000001 0 0  0.08800000000000001 0 0  0.08900000000000001 0 0  0.09 0 0  0.091 0 0  0.09200000000000001 0 0  0.09300000000000001 0 0  0.094 0 0  0.095 0 0  0.09600000000000002 0 0  0.09700000000000002 0 0  0.098 0 0  0.099 0 0  0.1 0 0  </DataArray>
</Points>
<Cells>
<DataArray  type="UInt32"  Name="connectivity"  format="ascii">0 1  1 2  2 3  3 4  4 5  5 6  6 7  7 8  8 9  9 10  10 11  11 12  12 13  13 14  14 15  15 16  16 17  17 18  18 19  19 20  20 21  21 22  22 23  23 24  24 25  25 26  26 27  27 28  28 29  29 30  30 31  31 32  32 33  33 34  34 35  35 36  36 37  37 38  38 39  39 40  40 41  41 42  42 43  43 44  44 45  45 46  46 47  47 48  48 49  49 50  50 51  51 52  52 53  53 54  54 55  55 56  56 57  57 58  58 59  59 60  60 61  61 62  62 63  63 64  64 65  65 66  66 67  67 68  68 69  69 70  70 71  71 72  72 73  73 74  74 75  75 76  76 77  77 78  78 79  79 80  80 81  81 82  82 83  83 84  84 85  85 86  86 87  87 88  88 89  89 90  90 91  91 92  92 93  93 94  94 95  95 96  96 97  97 98  98 99  99 100  </DataArray>
<DataArray  type="UInt32"  Name="offsets"  format="ascii">2 4 6 8 10 12 14 16 18 20 22 24 26 28 30 32 34 36 38 40 42 44 46 48 50 52 54 56 58 60 62 64 66 68 70 72 74 76 78 80 82 84 86 88 90 92 94 96 98 100 102 104 106 108 110 112 114 116 118 120 122 124 126 128 130 132 134 136 138 140 142 144 146 148 150 152 154 156 158 160 162 164 166 168 170 172 174 176 178 180 182 184 186 188 190 192 194 196 198 200 </DataArray>
<DataArray  type="UInt8"  Name="types"  format="ascii">3 3 3 3 3 3 3 3 3 3 3 3 3 3 3 3 3 3 3 3 3 3 3 3 3 3 3 3 3 3 3 3 3 3 3 3 3 3 3 3 3 3 3 3 3 3 3 3 3 3 3 3 3 3 3 3 3 3 3 3 3 3 3 3 3 3 3 3 3 3 3 3 3 3 3 3 3 3 3 3 3 3 3 3 3 3 3 3 3 3 3 3 3 3 3 3 3 3 3 3 </DataArray>
</Cells>
<PointData  Scalars="f_14"> 
<DataArray  type="Float64"  Name="f_14"  format="ascii">4.0938938203736043e-04  4.1351835581977711e-04  4.2596658415180793e-04  4.4691851544651547e-04  4.7668332164548655e-04  5.1569753409120048e-04  5.6452873158408055e-04  6.2388027811224433e-04  6.9459710653066822e-04  7.7767254289057514e-04  8.7425616410461240e-04  9.8566267910795541e-04  1.1133818205737215e-03  1.2590892305024257e-03  1.4246583185755272e-03  1.6121730669956342e-03  1.8239417495923241e-03  2.0625115262237217e-03  2.3306838659314186e-03  2.6315307439027723e-03  2.9684115480654145e-03  3.3449906211026562e-03  3.7652553528685797e-03  4.2335347266464389e-03  4.7545182104981138e-03  5.3332748721771689e-03  5.9752725828221684e-03  6.6863971610266366e-03  7.4729712950314499e-03  8.3417730668562048e-03  9.3000538883472959e-03  1.0355555645557726e-02  1.1516526834788066e-02  1.2791737461225800e-02  1.4190492459648815e-02  1.5722643386348024e-02  1.7398598122520613e-02  1.9229328322142036e-02  2.1226374331997141e-02  2.3401847308392284e-02  2.5768428254330827e-02  2.8339363702854534e-02  3.1128457777059651e-02  3.4150060365201615e-02  3.7419051160489505e-02  4.0950819329807764e-02  4.4761238593813923e-02  4.8866637522741285e-02  5.3283764877844586e-02  5.8029749857763817e-02  6.3122057142122698e-02  6.8578436661318853e-02  7.4416868061576463e-02  8.0655499877705567e-02  8.7312583472400410e-02  9.4406401849993882e-02  1.0195519350399788e-01  1.0997707151107103e-01  1.1848993813879417e-01  1.2751139529025352e-01  1.3705865116437876e-01  1.4714842356661470e-01  1.5779684035918995e-01  1.6901933759329599e-01  1.8083055591619707e-01  1.9324423589397116e-01  2.0627311293449119e-01  2.1992881253471994e-01  2.3422174661071279e-01  2.4916101169725249e-01  2.6475428982616783e-01  2.8100775290755192e-01  2.9792597144579913e-01  3.1551182842219372e-01  3.3376643916736909e-01  3.5268907803004901e-01  3.7227711262293711e-01  3.9252594639236210e-01  4.1342897021540748e-01  4.3497752367685427e-01  4.5716086661871308e-01  4.7996616148770688e-01  5.0337846693139676e-01  5.2738074301223514e-01  5.5195386832148552e-01  5.7707666918240341e-01  6.0272596103529119e-01  6.2887660199695283e-01  6.5550155848473757e-01  6.8257198269189945e-01  7.1005730159748093e-01  7.3792531709157849e-01  7.6614231669678279e-01  7.9467319426999039e-01  8.2348157997676552e-01  8.5252997874409264e-01  8.8177991631773756e-01  9.1119209197848194e-01  9.4072653690809394e-01  9.7034277714180817e-01  1.0000000000000000e+00  </DataArray> 
</PointData> 
</Piece>
</UnstructuredGrid>
</VTKFile>