<?xml version="1.0"?>
<VTKFile type="UnstructuredGrid"  version="0.1"  >
<UnstructuredGrid>
<Piece  NumberOfPoints="101" NumberOfCells="100">
<Points>
<DataArray  type="Float64"  NumberOfComponents="3"  format="ascii">0 0 0  0.001 0 0  0.002 0 0  0.003 0 0  0.004 0 0  0.005 0 0  0.006000000000000001 0 0  0.007000000000000001 0 0  0.008 0 0  0.009000000000000001 0 0  0.01 0 0  0.011 0 0  0.012 0 0  0.013 0 0  0.014 0 0  0.015 0 0  0.016 0 0  0.017 0 0  0.018 0 0  0.019 0 0  0.02 0 0  0.021 0 0  0.022 0 0  0.023 0 0  0.024 0 0  0.025 0 0  0.026 0 0  0.027 0 0  0.028 0 0  0.029 0 0  0.03 0 0  0.031 0 0  0.032 0 0  0.033 0 0  0.034 0 0  0.035 0 0  0.036 0 0  0.03700000000000001 0 0  0.03800000000000001 0 0  0.03900000000000001 0 0  0.04 0 0  0.04100000000000001 0 0  0.042 0 0  0.043 0 0  0.044 0 0  0.045 0 0  0.04600000000000001 0 0  0.047 0 0  0.04800000000000001 0 0  0.049 0 0  0.05 0 0  0.051 0 0  0.052 0 0  0.05300000000000001 0 0  0.05400000000000001 0 0  0.055 0 0  0.05600000000000001 0 0  0.057 0 0  0.05800000000000001 0 0  0.059 0 0  0.06 0 0  0.06100000000000001 0 0  0.062 0 0  0.063 0 0  0.064 0 0  0.065 0 0  0.066 0 0  0.067 0 0  0.068 0 0  0.06900000000000001 0 0  0.07000000000000001 0 0  0.07100000000000001 0 0  0.07200000000000001 0 0  0.07300000000000001 0 0  0.07400000000000001 0 0  0.075 0 0  0.07600000000000001 0 0  0.077 0 0  0.07800000000000001 0 0  0.079 0 0  0.08 0 0  0.081 0 0  0.08200000000000002 0 0  0.083 0 0  0.08400000000000001 0 0  0.08500000000000001 0 0  0.08599999999999999 0 0  0.08700000000000001 0 0  0.08800000000000001 0 0  0.08900000000000001 0 0  0.09 0 0  0.091 0 0  0.09200000000000001 0 0  0.09300000000000001 0 0  0.094 0 0  0.095 0 0  0.09600000000000002 0 0  0.09700000000000002 0 0  0.098 0 0  0.099 0 0  0.1 0 0  </DataArray>
</Points>
<Cells>
<DataArray  type="UInt32"  Name="connectivity"  format="ascii">0 1  1 2  2 3  3 4  4 5  5 6  6 7  7 8  8 9  9 10  10 11  11 12  12 13  13 14  14 15  15 16  16 17  17 18  18 19  19 20  20 21  21 22  22 23  23 24  24 25  25 26  26 27  27 28  28 29  29 30  30 31  31 32  32 33  33 34  34 35  35 36  36 37  37 38  38 39  39 40  40 41  41 42  42 43  43 44  44 45  45 46  46 47  47 48  48 49  49 50  50 51  51 52  52 53  53 54  54 55  55 56  56 57  57 58  58 59  59 60  60 61  61 62  62 63  63 64  64 65  65 66  66 67  67 68  68 69  69 70  70 71  71 72  72 73  73 74  74 75  75 76  76 77  77 78  78 79  79 80  80 81  81 82  82 83  83 84  84 85  85 86  86 87  87 88  88 89  89 90  90 91  91 92  92 93  93 94  94 95  95 96  96 97  97 98  98 99  99 100  </DataArray>
<DataArray  type="UInt32"  Name="offsets"  format="ascii">2 4 6 8 10 12 14 16 18 20 22 24 26 28 30 32 34 36 38 40 42 44 46 48 50 52 54 56 58 60 62 64 66 68 70 72 74 76 78 80 82 84 86 88 90 92 94 96 98 100 102 104 106 108 110 112 114 116 118 120 122 124 126 128 130 132 134 136 138 140 142 144 146 148 150 152 154 156 158 160 162 164 166 168 170 172 174 176 178 180 182 184 186 188 190 192 194 196 198 200 </DataArray>
<DataArray  type="UInt8"  Name="types"  format="ascii">3 3 3 3 3 3 3 3 3 3 3 3 3 3 3 3 3 3 3 3 3 3 3 3 3 3 3 3 3 3 3 3 3 3 3 3 3 3 3 3 3 3 3 3 3 3 3 3 3 3 3 3 3 3 3 3 3 3 3 3 3 3 3 3 3 3 3 3 3 3 3 3 3 3 3 3 3 3 3 3 3 3 3 3 3 3 3 3 3 3 3 3 3 3 3 3 3 3 3 3 </DataArray>
</Cells>
<PointData  Scalars="f_14"> 
<DataArray  type="Float64"  Name="f_14"  format="ascii">7.6858359127245247e-10  8.2744172831330764e-10  1.0121736307013020e-09  1.3482566170712805e-09  1.8816094870241198e-09  2.6841617997245879e-09  3.8624543027275265e-09  5.5701572396219804e-09  8.0257717456082080e-09  1.1537262876383180e-08  1.6535997050538041e-08  2.3623166212441113e-08  3.3632930729363671e-08  4.7717870740671267e-08  6.7464084870766918e-08  9.5045518131577411e-08  1.3342996180523797e-07  1.8665279715859932e-07  2.6017913154049110e-07  3.6138071260490039e-07  5.0016115391088473e-07  6.8977185299480093e-07  9.4787186387313518e-07  1.2978982764038907e-06  1.7708297750053979e-06  2.4074454594020673e-06  3.2612042052897828e-06  4.4018973424513712e-06  5.9202597607135122e-06  7.9337622376255468e-06  1.0593851294155116e-05  1.4094952629757173e-05  1.8685610451034985e-05  2.4682197902422140e-05  3.2485703212557580e-05  4.2602171660997709e-05  5.5667464237254833e-05  7.2477078629242376e-05  9.4021865104410837e-05  1.2153055645103787e-04  1.5652011421624193e-04  2.0085496899613692e-04  2.5681629563096479e-04  3.2718250907985409e-04  4.1532218686749791e-04  5.2530061186023243e-04  6.6200107658317704e-04  8.3126198863889625e-04  1.0400306570484915e-03  1.2965344125611927e-03  1.6104694126656196e-03  1.9932070966116669e-03  2.4580177811362814e-03  3.0203103198139149e-03  3.6978860868430927e-03  4.5112047919256123e-03  5.4836587931329298e-03  6.6418516604937880e-03  8.0158757709865424e-03  9.6395827078677582e-03  1.1550839221882388e-02  1.3791760522760203e-02  1.6408911745871200e-02  1.9453467625151086e-02  2.2981319747353721e-02  2.7053120314661304e-02  3.1734251153613141e-02  3.7094706827662104e-02  4.3208881184030497e-02  5.0155247532070291e-02  5.8015923940050902e-02  6.6876116868392524e-02  7.6823438533676541e-02  8.7947096006567374e-02  1.0033695305701901e-01  1.1408246912129862e-01  1.2927152340709583e-01  1.4598913598561705e-01  1.6431610163559038e-01  1.8432755608057724e-01  2.0609149796317658e-01  2.2966729328523347e-01  2.5510419196755785e-01  2.8243988850484353e-01  3.1169916028036060e-01  3.4289261784550962e-01  3.7601560126892902e-01  4.1104725545384219e-01  4.4794981507897197e-01  4.8666812654238822e-01  5.2712943002248980e-01  5.6924341959896563e-01  6.1290259342013931e-01  6.5798289931823628e-01  7.0434467424809988e-01  7.5183386866949098e-01  8.0028353973690936e-01  8.4951559014047784e-01  8.9934272289213413e-01  9.4957057649755927e-01  1.0000000000000000e+00  </DataArray> 
</PointData> 
</Piece>
</UnstructuredGrid>
</VTKFile>