<?xml version="1.0"?>
<VTKFile type="UnstructuredGrid"  version="0.1"  >
<UnstructuredGrid>
<Piece  NumberOfPoints="101" NumberOfCells="100">
<Points>
<DataArray  type="Float64"  NumberOfComponents="3"  format="ascii">0 0 0  0.001 0 0  0.002 0 0  0.003 0 0  0.004 0 0  0.005 0 0  0.006000000000000001 0 0  0.007000000000000001 0 0  0.008 0 0  0.009000000000000001 0 0  0.01 0 0  0.011 0 0  0.012 0 0  0.013 0 0  0.014 0 0  0.015 0 0  0.016 0 0  0.017 0 0  0.018 0 0  0.019 0 0  0.02 0 0  0.021 0 0  0.022 0 0  0.023 0 0  0.024 0 0  0.025 0 0  0.026 0 0  0.027 0 0  0.028 0 0  0.029 0 0  0.03 0 0  0.031 0 0  0.032 0 0  0.033 0 0  0.034 0 0  0.035 0 0  0.036 0 0  0.03700000000000001 0 0  0.03800000000000001 0 0  0.03900000000000001 0 0  0.04 0 0  0.04100000000000001 0 0  0.042 0 0  0.043 0 0  0.044 0 0  0.045 0 0  0.04600000000000001 0 0  0.047 0 0  0.04800000000000001 0 0  0.049 0 0  0.05 0 0  0.051 0 0  0.052 0 0  0.05300000000000001 0 0  0.05400000000000001 0 0  0.055 0 0  0.05600000000000001 0 0  0.057 0 0  0.05800000000000001 0 0  0.059 0 0  0.06 0 0  0.06100000000000001 0 0  0.062 0 0  0.063 0 0  0.064 0 0  0.065 0 0  0.066 0 0  0.067 0 0  0.068 0 0  0.06900000000000001 0 0  0.07000000000000001 0 0  0.07100000000000001 0 0  0.07200000000000001 0 0  0.07300000000000001 0 0  0.07400000000000001 0 0  0.075 0 0  0.07600000000000001 0 0  0.077 0 0  0.07800000000000001 0 0  0.079 0 0  0.08 0 0  0.081 0 0  0.08200000000000002 0 0  0.083 0 0  0.08400000000000001 0 0  0.08500000000000001 0 0  0.08599999999999999 0 0  0.08700000000000001 0 0  0.08800000000000001 0 0  0.08900000000000001 0 0  0.09 0 0  0.091 0 0  0.09200000000000001 0 0  0.09300000000000001 0 0  0.094 0 0  0.095 0 0  0.09600000000000002 0 0  0.09700000000000002 0 0  0.098 0 0  0.099 0 0  0.1 0 0  </DataArray>
</Points>
<Cells>
<DataArray  type="UInt32"  Name="connectivity"  format="ascii">0 1  1 2  2 3  3 4  4 5  5 6  6 7  7 8  8 9  9 10  10 11  11 12  12 13  13 14  14 15  15 16  16 17  17 18  18 19  19 20  20 21  21 22  22 23  23 24  24 25  25 26  26 27  27 28  28 29  29 30  30 31  31 32  32 33  33 34  34 35  35 36  36 37  37 38  38 39  39 40  40 41  41 42  42 43  43 44  44 45  45 46  46 47  47 48  48 49  49 50  50 51  51 52  52 53  53 54  54 55  55 56  56 57  57 58  58 59  59 60  60 61  61 62  62 63  63 64  64 65  65 66  66 67  67 68  68 69  69 70  70 71  71 72  72 73  73 74  74 75  75 76  76 77  77 78  78 79  79 80  80 81  81 82  82 83  83 84  84 85  85 86  86 87  87 88  88 89  89 90  90 91  91 92  92 93  93 94  94 95  95 96  96 97  97 98  98 99  99 100  </DataArray>
<DataArray  type="UInt32"  Name="offsets"  format="ascii">2 4 6 8 10 12 14 16 18 20 22 24 26 28 30 32 34 36 38 40 42 44 46 48 50 52 54 56 58 60 62 64 66 68 70 72 74 76 78 80 82 84 86 88 90 92 94 96 98 100 102 104 106 108 110 112 114 116 118 120 122 124 126 128 130 132 134 136 138 140 142 144 146 148 150 152 154 156 158 160 162 164 166 168 170 172 174 176 178 180 182 184 186 188 190 192 194 196 198 200 </DataArray>
<DataArray  type="UInt8"  Name="types"  format="ascii">3 3 3 3 3 3 3 3 3 3 3 3 3 3 3 3 3 3 3 3 3 3 3 3 3 3 3 3 3 3 3 3 3 3 3 3 3 3 3 3 3 3 3 3 3 3 3 3 3 3 3 3 3 3 3 3 3 3 3 3 3 3 3 3 3 3 3 3 3 3 3 3 3 3 3 3 3 3 3 3 3 3 3 3 3 3 3 3 3 3 3 3 3 3 3 3 3 3 3 3 </DataArray>
</Cells>
<PointData  Scalars="f_14"> 
<DataArray  type="Float64"  Name="f_14"  format="ascii">1.1217442781942493e-06  1.1578297279293884e-06  1.2680612515672941e-06  1.4584518208586835e-06  1.7393173795319872e-06  2.1257282809468286e-06  2.6381613791733429e-06  3.3033732594317671e-06  4.1555215241605534e-06  5.2375679050459375e-06  6.6030043323784240e-06  8.3179510367782823e-06  1.0463684350508623e-05  1.3139661169636300e-05  1.6467117071970723e-05  2.0593325877593530e-05  2.5696619984255147e-05  3.1992283076616402e-05  3.9739439731316992e-05  4.9249079916391757e-05  6.0893370267581909e-05  7.5116418120713946e-05  9.2446668339332081e-05  1.1351112669146094e-04  1.3905161652585365e-04  1.6994328733548883e-04  2.0721560396288241e-04  2.5207605311462251e-04  3.0593680885696316e-04  3.7044460013776191e-04  4.4751402033755785e-04  5.3936451055554930e-04  6.4856123390453319e-04  7.7806003661692988e-04  9.3125666234045276e-04  1.1120403477339039e-03  1.3248518795144170e-03  1.5747461346893735e-03  1.8674590561757614e-03  2.2094789348671346e-03  2.6081217761490440e-03  3.0716104238220454e-03  3.6091569975836056e-03  4.2310480721892713e-03  4.9487318880671672e-03  5.7749067358110950e-03  6.7236095023711457e-03  7.8103032070986466e-03  9.0519621937574755e-03  1.0467153483325310e-02  1.2076112635478311e-02  1.3900812318104326e-02  1.5965021648436904e-02  1.8294354251170257e-02  2.0916302883172547e-02  2.3860258406261374e-02  2.7157510854060932e-02  3.0841230341225250e-02  3.4946425608022642e-02  3.9509878084733281e-02  4.4570049502232936e-02  5.0166961270451518e-02  5.6342044097119841e-02  6.3137956626249186e-02  7.0598372238780710e-02  7.8767733575085028e-02  8.7690974807274377e-02  9.7413212203876609e-02  1.0797940408397846e-01  1.1943398184458534e-01  1.3182045435426040e-01  1.4518098862729129e-01  1.5955597031363586e-01  1.7498354814763423e-01  1.9149916707907022e-01  2.0913509534928179e-01  2.2791995125816350e-01  2.4787823578081250e-01  2.6902987752162932e-01  2.9138979672621557e-01  3.1496749519630862e-01  3.3976667896074919e-01  3.6578492043898098e-01  3.9301336658798769e-01  4.2143649914697068e-01  4.5103195258735063e-01  4.8177039474296524e-01  5.1361547434373445e-01  5.4652383881590039e-01  5.8044522475646998e-01  6.1532262245461955e-01  6.5109251473708407e-01  6.8768518927836264e-01  7.2502512236207506e-01  7.6303143093012082e-01  8.0161838863515111e-01  8.4069600054285698e-01  8.8017063013664909e-01  9.1994567138008565e-01  9.5992225781169094e-01  1.0000000000000000e+00  </DataArray> 
</PointData> 
</Piece>
</UnstructuredGrid>
</VTKFile>