<?xml version="1.0"?>
<VTKFile type="UnstructuredGrid"  version="0.1"  >
<UnstructuredGrid>
<Piece  NumberOfPoints="101" NumberOfCells="100">
<Points>
<DataArray  type="Float64"  NumberOfComponents="3"  format="ascii">0 0 0  0.001 0 0  0.002 0 0  0.003 0 0  0.004 0 0  0.005 0 0  0.006000000000000001 0 0  0.007000000000000001 0 0  0.008 0 0  0.009000000000000001 0 0  0.01 0 0  0.011 0 0  0.012 0 0  0.013 0 0  0.014 0 0  0.015 0 0  0.016 0 0  0.017 0 0  0.018 0 0  0.019 0 0  0.02 0 0  0.021 0 0  0.022 0 0  0.023 0 0  0.024 0 0  0.025 0 0  0.026 0 0  0.027 0 0  0.028 0 0  0.029 0 0  0.03 0 0  0.031 0 0  0.032 0 0  0.033 0 0  0.034 0 0  0.035 0 0  0.036 0 0  0.03700000000000001 0 0  0.03800000000000001 0 0  0.03900000000000001 0 0  0.04 0 0  0.04100000000000001 0 0  0.042 0 0  0.043 0 0  0.044 0 0  0.045 0 0  0.04600000000000001 0 0  0.047 0 0  0.04800000000000001 0 0  0.049 0 0  0.05 0 0  0.051 0 0  0.052 0 0  0.05300000000000001 0 0  0.05400000000000001 0 0  0.055 0 0  0.05600000000000001 0 0  0.057 0 0  0.05800000000000001 0 0  0.059 0 0  0.06 0 0  0.06100000000000001 0 0  0.062 0 0  0.063 0 0  0.064 0 0  0.065 0 0  0.066 0 0  0.067 0 0  0.068 0 0  0.06900000000000001 0 0  0.07000000000000001 0 0  0.07100000000000001 0 0  0.07200000000000001 0 0  0.07300000000000001 0 0  0.07400000000000001 0 0  0.075 0 0  0.07600000000000001 0 0  0.077 0 0  0.07800000000000001 0 0  0.079 0 0  0.08 0 0  0.081 0 0  0.08200000000000002 0 0  0.083 0 0  0.08400000000000001 0 0  0.08500000000000001 0 0  0.08599999999999999 0 0  0.08700000000000001 0 0  0.08800000000000001 0 0  0.08900000000000001 0 0  0.09 0 0  0.091 0 0  0.09200000000000001 0 0  0.09300000000000001 0 0  0.094 0 0  0.095 0 0  0.09600000000000002 0 0  0.09700000000000002 0 0  0.098 0 0  0.099 0 0  0.1 0 0  </DataArray>
</Points>
<Cells>
<DataArray  type="UInt32"  Name="connectivity"  format="ascii">0 1  1 2  2 3  3 4  4 5  5 6  6 7  7 8  8 9  9 10  10 11  11 12  12 13  13 14  14 15  15 16  16 17  17 18  18 19  19 20  20 21  21 22  22 23  23 24  24 25  25 26  26 27  27 28  28 29  29 30  30 31  31 32  32 33  33 34  34 35  35 36  36 37  37 38  38 39  39 40  40 41  41 42  42 43  43 44  44 45  45 46  46 47  47 48  48 49  49 50  50 51  51 52  52 53  53 54  54 55  55 56  56 57  57 58  58 59  59 60  60 61  61 62  62 63  63 64  64 65  65 66  66 67  67 68  68 69  69 70  70 71  71 72  72 73  73 74  74 75  75 76  76 77  77 78  78 79  79 80  80 81  81 82  82 83  83 84  84 85  85 86  86 87  87 88  88 89  89 90  90 91  91 92  92 93  93 94  94 95  95 96  96 97  97 98  98 99  99 100  </DataArray>
<DataArray  type="UInt32"  Name="offsets"  format="ascii">2 4 6 8 10 12 14 16 18 20 22 24 26 28 30 32 34 36 38 40 42 44 46 48 50 52 54 56 58 60 62 64 66 68 70 72 74 76 78 80 82 84 86 88 90 92 94 96 98 100 102 104 106 108 110 112 114 116 118 120 122 124 126 128 130 132 134 136 138 140 142 144 146 148 150 152 154 156 158 160 162 164 166 168 170 172 174 176 178 180 182 184 186 188 190 192 194 196 198 200 </DataArray>
<DataArray  type="UInt8"  Name="types"  format="ascii">3 3 3 3 3 3 3 3 3 3 3 3 3 3 3 3 3 3 3 3 3 3 3 3 3 3 3 3 3 3 3 3 3 3 3 3 3 3 3 3 3 3 3 3 3 3 3 3 3 3 3 3 3 3 3 3 3 3 3 3 3 3 3 3 3 3 3 3 3 3 3 3 3 3 3 3 3 3 3 3 3 3 3 3 3 3 3 3 3 3 3 3 3 3 3 3 3 3 3 3 </DataArray>
</Cells>
<PointData  Scalars="f_14"> 
<DataArray  type="Float64"  Name="f_14"  format="ascii">1.2413128256101832e-44  2.6889898301711387e-44  1.0381149241704228e-43  4.2047478976938025e-43  1.7031143145984366e-42  6.8777915807933399e-42  2.7685496374508831e-41  1.1107638474619988e-40  4.4414914039158824e-40  1.7698831027758687e-39  7.0281202779818419e-39  2.7808780473923164e-38  1.0963299261486417e-37  4.3061052244150156e-37  1.6849171787906081e-36  6.5673253281438428e-36  2.5496408672868528e-35  9.8585574716185553e-35  3.7962417162291318e-34  1.4556653302602716e-33  5.5577149910311868e-33  2.1125969416685616e-32  7.9942907232108809e-32  3.0112169817194976e-31  1.1289051859601161e-30  4.2119110465484654e-30  1.5637188736320364e-29  5.7762473980203354e-29  2.1227003874394878e-28  7.7595022509579040e-28  2.8211482761272811e-27  1.0200174323364835e-26  3.6670741202945177e-26  1.3106928414546120e-25  4.6568034623532465e-25  1.6444285388294967e-24  5.7705109335720251e-24  2.0119414232096328e-23  6.9685963747981239e-23  2.3973347916516704e-22  8.1900623730595866e-22  2.7780480994184188e-21  9.3541052332997022e-21  3.1259892739026880e-20  1.0365852454297522e-19  3.4100524692945970e-19  1.1126492393452690e-18  3.5999434513251482e-18  1.1546981545712335e-17  3.6708605220775125e-17  1.1563279182422722e-16  3.6082004465867380e-16  1.1150007282372761e-15  3.4112079195688548e-15  1.0329009021363796e-14  3.0944996335164742e-14  9.1698503057580776e-14  2.6867512427166195e-13  7.7809731964848814e-13  2.2265055338226384e-12  6.2926463439729603e-12  1.7558718708995320e-11  4.8353327507503192e-11  1.3135655545394815e-10  3.5186847021989460e-10  9.2900282549162411e-10  2.4163513692494911e-09  6.1887250847797006e-09  1.5600029973843911e-08  3.8682217005352449e-08  9.4304209850601708e-08  2.2591781142178400e-07  5.3153198892428194e-07  1.2275017157906585e-06  2.7808501867588681e-06  6.1764684656684008e-06  1.3441583095374081e-05  2.8644777257398545e-05  5.9739345801476739e-05  1.2185115748079270e-04  2.4293364716892468e-04  4.7311984307124252e-04  8.9954042869843688e-04  1.6687173655225269e-03  3.0186474514884922e-03  5.3220083065592940e-03  9.1401308037322871e-03  1.5284127854321242e-02  2.4874779567673599e-02  3.9386961220006719e-02  6.0658909491850002e-02  9.0843666706126508e-02  1.3228231734429491e-01  1.8728841473678001e-01  2.5785087679081681e-01  3.4528631127501208e-01  4.4989560364968700e-01  5.7069569746899895e-01  7.0529796891135421e-01  8.4998503041543927e-01  1.0000000000000000e+00  </DataArray> 
</PointData> 
</Piece>
</UnstructuredGrid>
</VTKFile>