<?xml version="1.0"?>
<VTKFile type="UnstructuredGrid"  version="0.1"  >
<UnstructuredGrid>
<Piece  NumberOfPoints="101" NumberOfCells="100">
<Points>
<DataArray  type="Float64"  NumberOfComponents="3"  format="ascii">0 0 0  0.001 0 0  0.002 0 0  0.003 0 0  0.004 0 0  0.005 0 0  0.006000000000000001 0 0  0.007000000000000001 0 0  0.008 0 0  0.009000000000000001 0 0  0.01 0 0  0.011 0 0  0.012 0 0  0.013 0 0  0.014 0 0  0.015 0 0  0.016 0 0  0.017 0 0  0.018 0 0  0.019 0 0  0.02 0 0  0.021 0 0  0.022 0 0  0.023 0 0  0.024 0 0  0.025 0 0  0.026 0 0  0.027 0 0  0.028 0 0  0.029 0 0  0.03 0 0  0.031 0 0  0.032 0 0  0.033 0 0  0.034 0 0  0.035 0 0  0.036 0 0  0.03700000000000001 0 0  0.03800000000000001 0 0  0.03900000000000001 0 0  0.04 0 0  0.04100000000000001 0 0  0.042 0 0  0.043 0 0  0.044 0 0  0.045 0 0  0.04600000000000001 0 0  0.047 0 0  0.04800000000000001 0 0  0.049 0 0  0.05 0 0  0.051 0 0  0.052 0 0  0.05300000000000001 0 0  0.05400000000000001 0 0  0.055 0 0  0.05600000000000001 0 0  0.057 0 0  0.05800000000000001 0 0  0.059 0 0  0.06 0 0  0.06100000000000001 0 0  0.062 0 0  0.063 0 0  0.064 0 0  0.065 0 0  0.066 0 0  0.067 0 0  0.068 0 0  0.06900000000000001 0 0  0.07000000000000001 0 0  0.07100000000000001 0 0  0.07200000000000001 0 0  0.07300000000000001 0 0  0.07400000000000001 0 0  0.075 0 0  0.07600000000000001 0 0  0.077 0 0  0.07800000000000001 0 0  0.079 0 0  0.08 0 0  0.081 0 0  0.08200000000000002 0 0  0.083 0 0  0.08400000000000001 0 0  0.08500000000000001 0 0  0.08599999999999999 0 0  0.08700000000000001 0 0  0.08800000000000001 0 0  0.08900000000000001 0 0  0.09 0 0  0.091 0 0  0.09200000000000001 0 0  0.09300000000000001 0 0  0.094 0 0  0.095 0 0  0.09600000000000002 0 0  0.09700000000000002 0 0  0.098 0 0  0.099 0 0  0.1 0 0  </DataArray>
</Points>
<Cells>
<DataArray  type="UInt32"  Name="connectivity"  format="ascii">0 1  1 2  2 3  3 4  4 5  5 6  6 7  7 8  8 9  9 10  10 11  11 12  12 13  13 14  14 15  15 16  16 17  17 18  18 19  19 20  20 21  21 22  22 23  23 24  24 25  25 26  26 27  27 28  28 29  29 30  30 31  31 32  32 33  33 34  34 35  35 36  36 37  37 38  38 39  39 40  40 41  41 42  42 43  43 44  44 45  45 46  46 47  47 48  48 49  49 50  50 51  51 52  52 53  53 54  54 55  55 56  56 57  57 58  58 59  59 60  60 61  61 62  62 63  63 64  64 65  65 66  66 67  67 68  68 69  69 70  70 71  71 72  72 73  73 74  74 75  75 76  76 77  77 78  78 79  79 80  80 81  81 82  82 83  83 84  84 85  85 86  86 87  87 88  88 89  89 90  90 91  91 92  92 93  93 94  94 95  95 96  96 97  97 98  98 99  99 100  </DataArray>
<DataArray  type="UInt32"  Name="offsets"  format="ascii">2 4 6 8 10 12 14 16 18 20 22 24 26 28 30 32 34 36 38 40 42 44 46 48 50 52 54 56 58 60 62 64 66 68 70 72 74 76 78 80 82 84 86 88 90 92 94 96 98 100 102 104 106 108 110 112 114 116 118 120 122 124 126 128 130 132 134 136 138 140 142 144 146 148 150 152 154 156 158 160 162 164 166 168 170 172 174 176 178 180 182 184 186 188 190 192 194 196 198 200 </DataArray>
<DataArray  type="UInt8"  Name="types"  format="ascii">3 3 3 3 3 3 3 3 3 3 3 3 3 3 3 3 3 3 3 3 3 3 3 3 3 3 3 3 3 3 3 3 3 3 3 3 3 3 3 3 3 3 3 3 3 3 3 3 3 3 3 3 3 3 3 3 3 3 3 3 3 3 3 3 3 3 3 3 3 3 3 3 3 3 3 3 3 3 3 3 3 3 3 3 3 3 3 3 3 3 3 3 3 3 3 3 3 3 3 3 </DataArray>
</Cells>
<PointData  Scalars="f_14"> 
<DataArray  type="Float64"  Name="f_14"  format="ascii">4.3368320093612944e-06  4.4495332962462181e-06  4.7925217386985584e-06  5.3806163836316160e-06  6.2390704100156499e-06  7.4044164771661211e-06  8.9256767090890571e-06  1.0865964046670645e-05  1.3304509662218865e-05  1.6339159318494030e-05  2.0089389995608948e-05  2.4699906819608284e-05  3.0344889305900563e-05  3.7232965160155599e-05  4.5612999318453118e-05  5.5780795492631712e-05  6.8086817123873391e-05  8.2945044215320329e-05  1.0084309185783412e-04  1.2235372519141266e-04  1.4814791383042648e-04  1.7900957615690384e-04  2.1585217004591758e-04  2.5973729118413600e-04  3.1189544279125496e-04  3.7374914083198994e-04  4.4693851625792516e-04  5.3334956995988421e-04  6.3514522643723327e-04  7.5479931818233596e-04  8.9513361391560758e-04  1.0593579795787338e-03  1.2511137309147693e-03  1.4745202000893752e-03  1.7342244957520277e-03  2.0354543858937721e-03  2.3840741756235690e-03  2.7866433874756350e-03  3.2504779801379117e-03  3.7837137627867337e-03  4.3953715769440458e-03  5.0954237265691807e-03  5.8948610408117346e-03  6.8057598535813356e-03  7.8413480811791066e-03  9.0160694752870838e-03  1.0345645025480509e-02  1.1847130385214656e-02  1.3538968100276081e-02  1.5441033331510970e-02  1.7574671686964700e-02  1.9962727715221156e-02  2.2629562564642141e-02  2.5601059285310399e-02  2.8904614244667743e-02  3.2569113146877542e-02  3.6624890192391679e-02  4.1103668990337169e-02  4.6038483944055929e-02  5.1463580970855224e-02  5.7414296591647408e-02  6.3926914634909932e-02  7.1038500041840036e-02  7.8786709534484328e-02  8.7209579213959748e-02  9.6345289488782515e-02  1.0623190809003871e-01  1.1690711230609428e-01  1.2840789195935151e-01  1.4077023504505290e-01  1.5402879835047439e-01  1.6821656576461891e-01  1.8336449736585128e-01  1.9950117272964138e-01  2.1665243222240554e-01  2.3484102033211399e-01  2.5408623532387420e-01  2.7440358969155682e-01  2.9580448599785819e-01  3.1829591274891378e-01  3.4188016493082357e-01  3.6655459374039395e-01  3.9231138986880676e-01  4.1913740444389197e-01  4.4701401140507652e-01  4.7591701467731534e-01  5.0581660303062737e-01  5.3667735496603841e-01  5.6845829536427706e-01  6.0111300497944853e-01  6.3458978316638748e-01  6.6883186350901114e-01  7.0377768128011631e-01  7.3936119092381591e-01  7.7551223102365563e-01  8.1215693351599105e-01  8.4921817324281013e-01  8.8661605332372706e-01  9.2426842127534370e-01  9.6209141032853829e-01  1.0000000000000000e+00  </DataArray> 
</PointData> 
</Piece>
</UnstructuredGrid>
</VTKFile>