<?xml version="1.0"?>
<VTKFile type="UnstructuredGrid"  version="0.1"  >
<UnstructuredGrid>
<Piece  NumberOfPoints="101" NumberOfCells="100">
<Points>
<DataArray  type="Float64"  NumberOfComponents="3"  format="ascii">0 0 0  0.001 0 0  0.002 0 0  0.003 0 0  0.004 0 0  0.005 0 0  0.006000000000000001 0 0  0.007000000000000001 0 0  0.008 0 0  0.009000000000000001 0 0  0.01 0 0  0.011 0 0  0.012 0 0  0.013 0 0  0.014 0 0  0.015 0 0  0.016 0 0  0.017 0 0  0.018 0 0  0.019 0 0  0.02 0 0  0.021 0 0  0.022 0 0  0.023 0 0  0.024 0 0  0.025 0 0  0.026 0 0  0.027 0 0  0.028 0 0  0.029 0 0  0.03 0 0  0.031 0 0  0.032 0 0  0.033 0 0  0.034 0 0  0.035 0 0  0.036 0 0  0.03700000000000001 0 0  0.03800000000000001 0 0  0.03900000000000001 0 0  0.04 0 0  0.04100000000000001 0 0  0.042 0 0  0.043 0 0  0.044 0 0  0.045 0 0  0.04600000000000001 0 0  0.047 0 0  0.04800000000000001 0 0  0.049 0 0  0.05 0 0  0.051 0 0  0.052 0 0  0.05300000000000001 0 0  0.05400000000000001 0 0  0.055 0 0  0.05600000000000001 0 0  0.057 0 0  0.05800000000000001 0 0  0.059 0 0  0.06 0 0  0.06100000000000001 0 0  0.062 0 0  0.063 0 0  0.064 0 0  0.065 0 0  0.066 0 0  0.067 0 0  0.068 0 0  0.06900000000000001 0 0  0.07000000000000001 0 0  0.07100000000000001 0 0  0.07200000000000001 0 0  0.07300000000000001 0 0  0.07400000000000001 0 0  0.075 0 0  0.07600000000000001 0 0  0.077 0 0  0.07800000000000001 0 0  0.079 0 0  0.08 0 0  0.081 0 0  0.08200000000000002 0 0  0.083 0 0  0.08400000000000001 0 0  0.08500000000000001 0 0  0.08599999999999999 0 0  0.08700000000000001 0 0  0.08800000000000001 0 0  0.08900000000000001 0 0  0.09 0 0  0.091 0 0  0.09200000000000001 0 0  0.09300000000000001 0 0  0.094 0 0  0.095 0 0  0.09600000000000002 0 0  0.09700000000000002 0 0  0.098 0 0  0.099 0 0  0.1 0 0  </DataArray>
</Points>
<Cells>
<DataArray  type="UInt32"  Name="connectivity"  format="ascii">0 1  1 2  2 3  3 4  4 5  5 6  6 7  7 8  8 9  9 10  10 11  11 12  12 13  13 14  14 15  15 16  16 17  17 18  18 19  19 20  20 21  21 22  22 23  23 24  24 25  25 26  26 27  27 28  28 29  29 30  30 31  31 32  32 33  33 34  34 35  35 36  36 37  37 38  38 39  39 40  40 41  41 42  42 43  43 44  44 45  45 46  46 47  47 48  48 49  49 50  50 51  51 52  52 53  53 54  54 55  55 56  56 57  57 58  58 59  59 60  60 61  61 62  62 63  63 64  64 65  65 66  66 67  67 68  68 69  69 70  70 71  71 72  72 73  73 74  74 75  75 76  76 77  77 78  78 79  79 80  80 81  81 82  82 83  83 84  84 85  85 86  86 87  87 88  88 89  89 90  90 91  91 92  92 93  93 94  94 95  95 96  96 97  97 98  98 99  99 100  </DataArray>
<DataArray  type="UInt32"  Name="offsets"  format="ascii">2 4 6 8 10 12 14 16 18 20 22 24 26 28 30 32 34 36 38 40 42 44 46 48 50 52 54 56 58 60 62 64 66 68 70 72 74 76 78 80 82 84 86 88 90 92 94 96 98 100 102 104 106 108 110 112 114 116 118 120 122 124 126 128 130 132 134 136 138 140 142 144 146 148 150 152 154 156 158 160 162 164 166 168 170 172 174 176 178 180 182 184 186 188 190 192 194 196 198 200 </DataArray>
<DataArray  type="UInt8"  Name="types"  format="ascii">3 3 3 3 3 3 3 3 3 3 3 3 3 3 3 3 3 3 3 3 3 3 3 3 3 3 3 3 3 3 3 3 3 3 3 3 3 3 3 3 3 3 3 3 3 3 3 3 3 3 3 3 3 3 3 3 3 3 3 3 3 3 3 3 3 3 3 3 3 3 3 3 3 3 3 3 3 3 3 3 3 3 3 3 3 3 3 3 3 3 3 3 3 3 3 3 3 3 3 3 </DataArray>
</Cells>
<PointData  Scalars="f_14"> 
<DataArray  type="Float64"  Name="f_14"  format="ascii">7.1985906023376166e-05  7.3085115655966801e-05  7.6409066621910577e-05  8.2037158453333978e-05  9.0103171118609355e-05  1.0079744656572608e-04  1.1436996357366722e-04  1.3113432624691334e-04  1.5147269178576061e-04  1.7584166807055595e-04  2.0477921601578882e-04  2.3891259548034164e-04  2.7896739665841410e-04  3.2577770121210506e-04  3.8029741882701423e-04  4.4361284525784974e-04  5.1695648715965957e-04  6.0172219694723571e-04  6.9948165746474146e-04  8.1200225125469005e-04  9.4126634256808995e-04  1.0894919918393335e-03  1.2591551120521816e-03  1.4530130641505715e-03  1.6741296743187357e-03  1.9259016395071374e-03  2.2120862689749368e-03  2.5368304888443022e-03  2.9047010137367053e-03  3.3207155645418531e-03  3.7903749843517494e-03  4.3196960757148090e-03  4.9152449518148110e-03  5.5841706621942286e-03  6.3342388205111537e-03  7.1738649278892258e-03  8.1121470510910360e-03  9.1588974804741718e-03  1.0324672958985540e-02  1.1620803040876721e-02  1.3059416107990492e-02  1.4653462543029907e-02  1.6416734533864115e-02  1.8363881961367439e-02  2.0510423806261422e-02  2.2872754498677681e-02  2.5468144628414947e-02  2.8314735434840754e-02  3.1431526503771803e-02  3.4838356115078767e-02  3.8555873709773737e-02  4.2605503979420804e-02  4.7009402124250275e-02  5.1790399879609303e-02  5.6971941973480988e-02  6.2578012750730369e-02  6.8633052782312812e-02  7.5161865369559655e-02  8.2189512954314592e-02  8.9741203554410426e-02  9.7842167459866208e-02  1.0651752454714401e-01  1.1579214269558313e-01  1.2569048792027443e-01  1.3623646696754663e-01  1.4745326325117669e-01  1.5936316713751622e-01  1.7198740171399984e-01  1.8534594529591178e-01  1.9945735203876769e-01  2.1433857212612786e-01  2.3000477309305056e-01  2.4646916392173249e-01  2.6374282360629547e-01  2.8183453592644331e-01  3.0075063219328196e-01  3.2049484373366444e-01  3.4106816586092203e-01  3.6246873503902588e-01  3.8469172088359543e-01  4.0772923455669186e-01  4.3157025500315987e-01  4.5620057434511013e-01  4.8160276359887899e-01  5.0775615970686627e-01  5.3463687468669530e-01  5.6221782749427007e-01  5.9046879897783355e-01  6.1935651006974124e-01  6.4884472312427122e-01  6.7889436606644471e-01  7.0946367877185945e-01  7.4050838085424475e-01  7.7198185979929324e-01  8.0383537815366302e-01  8.3601829826022767e-01  8.6847832282788229e-01  9.0116174943949368e-01  9.3401373693768097e-01  9.6697858148750626e-01  1.0000000000000000e+00  </DataArray> 
</PointData> 
</Piece>
</UnstructuredGrid>
</VTKFile>