<?xml version="1.0"?>
<VTKFile type="UnstructuredGrid"  version="0.1"  >
<UnstructuredGrid>
<Piece  NumberOfPoints="101" NumberOfCells="100">
<Points>
<DataArray  type="Float64"  NumberOfComponents="3"  format="ascii">0 0 0  0.001 0 0  0.002 0 0  0.003 0 0  0.004 0 0  0.005 0 0  0.006000000000000001 0 0  0.007000000000000001 0 0  0.008 0 0  0.009000000000000001 0 0  0.01 0 0  0.011 0 0  0.012 0 0  0.013 0 0  0.014 0 0  0.015 0 0  0.016 0 0  0.017 0 0  0.018 0 0  0.019 0 0  0.02 0 0  0.021 0 0  0.022 0 0  0.023 0 0  0.024 0 0  0.025 0 0  0.026 0 0  0.027 0 0  0.028 0 0  0.029 0 0  0.03 0 0  0.031 0 0  0.032 0 0  0.033 0 0  0.034 0 0  0.035 0 0  0.036 0 0  0.03700000000000001 0 0  0.03800000000000001 0 0  0.03900000000000001 0 0  0.04 0 0  0.04100000000000001 0 0  0.042 0 0  0.043 0 0  0.044 0 0  0.045 0 0  0.04600000000000001 0 0  0.047 0 0  0.04800000000000001 0 0  0.049 0 0  0.05 0 0  0.051 0 0  0.052 0 0  0.05300000000000001 0 0  0.05400000000000001 0 0  0.055 0 0  0.05600000000000001 0 0  0.057 0 0  0.05800000000000001 0 0  0.059 0 0  0.06 0 0  0.06100000000000001 0 0  0.062 0 0  0.063 0 0  0.064 0 0  0.065 0 0  0.066 0 0  0.067 0 0  0.068 0 0  0.06900000000000001 0 0  0.07000000000000001 0 0  0.07100000000000001 0 0  0.07200000000000001 0 0  0.07300000000000001 0 0  0.07400000000000001 0 0  0.075 0 0  0.07600000000000001 0 0  0.077 0 0  0.07800000000000001 0 0  0.079 0 0  0.08 0 0  0.081 0 0  0.08200000000000002 0 0  0.083 0 0  0.08400000000000001 0 0  0.08500000000000001 0 0  0.08599999999999999 0 0  0.08700000000000001 0 0  0.08800000000000001 0 0  0.08900000000000001 0 0  0.09 0 0  0.091 0 0  0.09200000000000001 0 0  0.09300000000000001 0 0  0.094 0 0  0.095 0 0  0.09600000000000002 0 0  0.09700000000000002 0 0  0.098 0 0  0.099 0 0  0.1 0 0  </DataArray>
</Points>
<Cells>
<DataArray  type="UInt32"  Name="connectivity"  format="ascii">0 1  1 2  2 3  3 4  4 5  5 6  6 7  7 8  8 9  9 10  10 11  11 12  12 13  13 14  14 15  15 16  16 17  17 18  18 19  19 20  20 21  21 22  22 23  23 24  24 25  25 26  26 27  27 28  28 29  29 30  30 31  31 32  32 33  33 34  34 35  35 36  36 37  37 38  38 39  39 40  40 41  41 42  42 43  43 44  44 45  45 46  46 47  47 48  48 49  49 50  50 51  51 52  52 53  53 54  54 55  55 56  56 57  57 58  58 59  59 60  60 61  61 62  62 63  63 64  64 65  65 66  66 67  67 68  68 69  69 70  70 71  71 72  72 73  73 74  74 75  75 76  76 77  77 78  78 79  79 80  80 81  81 82  82 83  83 84  84 85  85 86  86 87  87 88  88 89  89 90  90 91  91 92  92 93  93 94  94 95  95 96  96 97  97 98  98 99  99 100  </DataArray>
<DataArray  type="UInt32"  Name="offsets"  format="ascii">2 4 6 8 10 12 14 16 18 20 22 24 26 28 30 32 34 36 38 40 42 44 46 48 50 52 54 56 58 60 62 64 66 68 70 72 74 76 78 80 82 84 86 88 90 92 94 96 98 100 102 104 106 108 110 112 114 116 118 120 122 124 126 128 130 132 134 136 138 140 142 144 146 148 150 152 154 156 158 160 162 164 166 168 170 172 174 176 178 180 182 184 186 188 190 192 194 196 198 200 </DataArray>
<DataArray  type="UInt8"  Name="types"  format="ascii">3 3 3 3 3 3 3 3 3 3 3 3 3 3 3 3 3 3 3 3 3 3 3 3 3 3 3 3 3 3 3 3 3 3 3 3 3 3 3 3 3 3 3 3 3 3 3 3 3 3 3 3 3 3 3 3 3 3 3 3 3 3 3 3 3 3 3 3 3 3 3 3 3 3 3 3 3 3 3 3 3 3 3 3 3 3 3 3 3 3 3 3 3 3 3 3 3 3 3 3 </DataArray>
</Cells>
<PointData  Scalars="f_14"> 
<DataArray  type="Float64"  Name="f_14"  format="ascii">2.2061242187326943e-07  2.2954146343723747e-07  2.5695537475252280e-07  3.0477123894003731e-07  3.7630828104815729e-07  4.7647991314941253e-07  6.1207461014614732e-07  7.9213805502049935e-07  1.0284731582021933e-06  1.3362791861462679e-06  1.7349564376187177e-06  2.2491087931430306e-06  2.9097831455189130e-06  3.7559923094310772e-06  4.8365766164227849e-06  6.2124691342147977e-06  7.9594404052241075e-06  1.0171410865036964e-05  1.2964432747263464e-05  1.6481458352997575e-05  2.0898028076645977e-05  2.6429029511668412e-05  3.3336698237772547e-05  4.1940051384501988e-05  5.2625966574278344e-05  6.5862141088768639e-05  8.2212188700816940e-05  1.0235315409039115e-04  1.2709574652198616e-04  1.5740761478280730e-04  1.9444000341368488e-04  2.3955814501894148e-04  2.9437575379021816e-04  3.6079399006089361e-04  4.4104526333478561e-04  5.3774223030747601e-04  6.5393232333491502e-04  7.9315811195836031e-04  9.5952375380485837e-04  1.1577677298151878e-03  1.3933419807593320e-03  1.6724974659877701e-03  2.0023760501653464e-03  2.3911084884802396e-03  2.8479181250427111e-03  3.3832297428993924e-03  4.0087828078729706e-03  4.7377481335382351e-03  5.5848467630496695e-03  6.5664696180377010e-03  7.7007962090551683e-03  9.0079104406446484e-03  1.0509911282491159e-02  1.2231015822693449e-02  1.4197651977148829e-02  1.6438537908372630e-02  1.8984745016366818e-02  2.1869741212476000e-02  2.5129411083844016e-02  2.8802049510431769e-02  3.2928325317635038e-02  3.7551211643804330e-02  4.2715879880965812e-02  4.8469554315034434e-02  5.4861324953436971e-02  6.1941916486000795e-02  6.9763411879584139e-02  7.8378929756037913e-02  8.7842255441692274e-02  9.8207426396684228e-02  1.0952827362305560e-01  1.2185792159757705e-01  1.3524825026167364e-01  1.4974932360689261e-01  1.6540879039792067e-01  1.8227126355210763e-01  2.0037768561926028e-01  2.1976468865179000e-01  2.4046395749676686e-01  2.6250160615229406e-01  2.8589757728678045e-01  3.1066507529921933e-01  3.3681004338291598e-01  3.6433069492941017e-01  3.9321710926356213e-01  4.2345090112992956e-01  4.5500497255546674e-01  4.8784335470085977e-01  5.2192114609527707e-01  5.5718455224577845e-01  5.9357103004751932e-01  6.3100953872414878e-01  6.6942089723375364e-01  7.0871824622269530e-01  7.4880761073871926e-01  7.8958855806866646e-01  8.3095494328828456e-01  8.7279573344471917e-01  9.1499589977692697e-01  9.5743736605305230e-01  1.0000000000000000e+00  </DataArray> 
</PointData> 
</Piece>
</UnstructuredGrid>
</VTKFile>