<?xml version="1.0"?>
<VTKFile type="UnstructuredGrid"  version="0.1"  >
<UnstructuredGrid>
<Piece  NumberOfPoints="101" NumberOfCells="100">
<Points>
<DataArray  type="Float64"  NumberOfComponents="3"  format="ascii">0 0 0  0.001 0 0  0.002 0 0  0.003 0 0  0.004 0 0  0.005 0 0  0.006000000000000001 0 0  0.007000000000000001 0 0  0.008 0 0  0.009000000000000001 0 0  0.01 0 0  0.011 0 0  0.012 0 0  0.013 0 0  0.014 0 0  0.015 0 0  0.016 0 0  0.017 0 0  0.018 0 0  0.019 0 0  0.02 0 0  0.021 0 0  0.022 0 0  0.023 0 0  0.024 0 0  0.025 0 0  0.026 0 0  0.027 0 0  0.028 0 0  0.029 0 0  0.03 0 0  0.031 0 0  0.032 0 0  0.033 0 0  0.034 0 0  0.035 0 0  0.036 0 0  0.03700000000000001 0 0  0.03800000000000001 0 0  0.03900000000000001 0 0  0.04 0 0  0.04100000000000001 0 0  0.042 0 0  0.043 0 0  0.044 0 0  0.045 0 0  0.04600000000000001 0 0  0.047 0 0  0.04800000000000001 0 0  0.049 0 0  0.05 0 0  0.051 0 0  0.052 0 0  0.05300000000000001 0 0  0.05400000000000001 0 0  0.055 0 0  0.05600000000000001 0 0  0.057 0 0  0.05800000000000001 0 0  0.059 0 0  0.06 0 0  0.06100000000000001 0 0  0.062 0 0  0.063 0 0  0.064 0 0  0.065 0 0  0.066 0 0  0.067 0 0  0.068 0 0  0.06900000000000001 0 0  0.07000000000000001 0 0  0.07100000000000001 0 0  0.07200000000000001 0 0  0.07300000000000001 0 0  0.07400000000000001 0 0  0.075 0 0  0.07600000000000001 0 0  0.077 0 0  0.07800000000000001 0 0  0.079 0 0  0.08 0 0  0.081 0 0  0.08200000000000002 0 0  0.083 0 0  0.08400000000000001 0 0  0.08500000000000001 0 0  0.08599999999999999 0 0  0.08700000000000001 0 0  0.08800000000000001 0 0  0.08900000000000001 0 0  0.09 0 0  0.091 0 0  0.09200000000000001 0 0  0.09300000000000001 0 0  0.094 0 0  0.095 0 0  0.09600000000000002 0 0  0.09700000000000002 0 0  0.098 0 0  0.099 0 0  0.1 0 0  </DataArray>
</Points>
<Cells>
<DataArray  type="UInt32"  Name="connectivity"  format="ascii">0 1  1 2  2 3  3 4  4 5  5 6  6 7  7 8  8 9  9 10  10 11  11 12  12 13  13 14  14 15  15 16  16 17  17 18  18 19  19 20  20 21  21 22  22 23  23 24  24 25  25 26  26 27  27 28  28 29  29 30  30 31  31 32  32 33  33 34  34 35  35 36  36 37  37 38  38 39  39 40  40 41  41 42  42 43  43 44  44 45  45 46  46 47  47 48  48 49  49 50  50 51  51 52  52 53  53 54  54 55  55 56  56 57  57 58  58 59  59 60  60 61  61 62  62 63  63 64  64 65  65 66  66 67  67 68  68 69  69 70  70 71  71 72  72 73  73 74  74 75  75 76  76 77  77 78  78 79  79 80  80 81  81 82  82 83  83 84  84 85  85 86  86 87  87 88  88 89  89 90  90 91  91 92  92 93  93 94  94 95  95 96  96 97  97 98  98 99  99 100  </DataArray>
<DataArray  type="UInt32"  Name="offsets"  format="ascii">2 4 6 8 10 12 14 16 18 20 22 24 26 28 30 32 34 36 38 40 42 44 46 48 50 52 54 56 58 60 62 64 66 68 70 72 74 76 78 80 82 84 86 88 90 92 94 96 98 100 102 104 106 108 110 112 114 116 118 120 122 124 126 128 130 132 134 136 138 140 142 144 146 148 150 152 154 156 158 160 162 164 166 168 170 172 174 176 178 180 182 184 186 188 190 192 194 196 198 200 </DataArray>
<DataArray  type="UInt8"  Name="types"  format="ascii">3 3 3 3 3 3 3 3 3 3 3 3 3 3 3 3 3 3 3 3 3 3 3 3 3 3 3 3 3 3 3 3 3 3 3 3 3 3 3 3 3 3 3 3 3 3 3 3 3 3 3 3 3 3 3 3 3 3 3 3 3 3 3 3 3 3 3 3 3 3 3 3 3 3 3 3 3 3 3 3 3 3 3 3 3 3 3 3 3 3 3 3 3 3 3 3 3 3 3 3 </DataArray>
</Cells>
<PointData  Scalars="f_14"> 
<DataArray  type="Float64"  Name="f_14"  format="ascii">7.6418890355817930e-04  7.7068007827533840e-04  7.9023227723746820e-04  8.2308202165754494e-04  8.6962516802464190e-04  9.3041938463375772e-04  1.0061876082813224e-03  1.0978224704400001e-03  1.2063916788338160e-03  1.3331443366941557e-03  1.4795181780410092e-03  1.6471476930584848e-03  1.8378731129809155e-03  2.0537502188434009e-03  2.2970609329527555e-03  2.5703246459832952e-03  2.8763102261866349e-03  3.2180486503242981e-03  3.5988461885947429e-03  4.0222980680503576e-03  4.4923025308139120e-03  5.0130751948474616e-03  5.5891636161506109e-03  6.2254619421320363e-03  6.9272255365820474e-03  7.7000854472607455e-03  8.5500625777028636e-03  9.4835814155352118e-03  1.0507483160524465e-02  1.1629038086850705e-02  1.2855956965873511e-02  1.4196401368068438e-02  1.5658992656014423e-02  1.7252819474465775e-02  1.8987443538805656e-02  2.0872903519715897e-02  2.2919716819871379e-02  2.5138879038037583e-02  2.7541860917270070e-02  3.0140602577133638e-02  3.2947504835112114e-02  3.5975417429792551e-02  3.9237623968086832e-02  4.2747823430792552e-02  4.6520108085257368e-02  5.0568937670848892e-02  5.4909109742360018e-02  5.9555726078388591e-02  6.4524155086087637e-02  6.9829990160404476e-02  7.5489003984925057e-02  8.1517098792556031e-02  8.7930252637355932e-02  9.4744461763641166e-02  1.0197567919480989e-01  1.0963974970186163e-01  1.1775234135003468e-01  1.2632887386099004e-01  1.3538444406717970e-01  1.4493374877403437e-01  1.5499100538400226e-01  1.6556987067379964e-01  1.7668335815208056e-01  1.8834375445862345e-01  2.0056253529761198e-01  2.1335028142622273e-01  2.2671659524505594e-01  2.4067001855855238e-01  2.5521795209101816e-01  2.7036657735685776e-01  2.8612078149175468e-01  3.0248408565454310e-01  3.1945857760713103e-01  3.3704484907186810e-01  3.5524193845205138e-01  3.7404727948176397e-01  3.9345665634591015e-01  4.1346416578020062e-01  4.3406218662409873e-01  4.5524135725748716e-01  4.7699056130440393e-01  4.9929692193485442e-01  5.2214580503891161e-01  5.4552083148646335e-01  5.6940389862160701e-01  5.9377521107337417e-01  6.1861332089482435e-01  6.4389517697123089e-01  6.6959618356577144e-01  6.9569026779860088e-01  7.2214995578307550e-01  7.4894645707205687e-01  7.7604975699831569e-01  8.0342871642686942e-01  8.3105117837429354e-01  8.5888408089135737e-01  8.8689357555137893e-01  9.1504515083808768e-01  9.4330375968403524e-01  9.7163395037422351e-01  1.0000000000000000e+00  </DataArray> 
</PointData> 
</Piece>
</UnstructuredGrid>
</VTKFile>