<?xml version="1.0"?>
<VTKFile type="UnstructuredGrid"  version="0.1"  >
<UnstructuredGrid>
<Piece  NumberOfPoints="101" NumberOfCells="100">
<Points>
<DataArray  type="Float64"  NumberOfComponents="3"  format="ascii">0 0 0  0.001 0 0  0.002 0 0  0.003 0 0  0.004 0 0  0.005 0 0  0.006000000000000001 0 0  0.007000000000000001 0 0  0.008 0 0  0.009000000000000001 0 0  0.01 0 0  0.011 0 0  0.012 0 0  0.013 0 0  0.014 0 0  0.015 0 0  0.016 0 0  0.017 0 0  0.018 0 0  0.019 0 0  0.02 0 0  0.021 0 0  0.022 0 0  0.023 0 0  0.024 0 0  0.025 0 0  0.026 0 0  0.027 0 0  0.028 0 0  0.029 0 0  0.03 0 0  0.031 0 0  0.032 0 0  0.033 0 0  0.034 0 0  0.035 0 0  0.036 0 0  0.03700000000000001 0 0  0.03800000000000001 0 0  0.03900000000000001 0 0  0.04 0 0  0.04100000000000001 0 0  0.042 0 0  0.043 0 0  0.044 0 0  0.045 0 0  0.04600000000000001 0 0  0.047 0 0  0.04800000000000001 0 0  0.049 0 0  0.05 0 0  0.051 0 0  0.052 0 0  0.05300000000000001 0 0  0.05400000000000001 0 0  0.055 0 0  0.05600000000000001 0 0  0.057 0 0  0.05800000000000001 0 0  0.059 0 0  0.06 0 0  0.06100000000000001 0 0  0.062 0 0  0.063 0 0  0.064 0 0  0.065 0 0  0.066 0 0  0.067 0 0  0.068 0 0  0.06900000000000001 0 0  0.07000000000000001 0 0  0.07100000000000001 0 0  0.07200000000000001 0 0  0.07300000000000001 0 0  0.07400000000000001 0 0  0.075 0 0  0.07600000000000001 0 0  0.077 0 0  0.07800000000000001 0 0  0.079 0 0  0.08 0 0  0.081 0 0  0.08200000000000002 0 0  0.083 0 0  0.08400000000000001 0 0  0.08500000000000001 0 0  0.08599999999999999 0 0  0.08700000000000001 0 0  0.08800000000000001 0 0  0.08900000000000001 0 0  0.09 0 0  0.091 0 0  0.09200000000000001 0 0  0.09300000000000001 0 0  0.094 0 0  0.095 0 0  0.09600000000000002 0 0  0.09700000000000002 0 0  0.098 0 0  0.099 0 0  0.1 0 0  </DataArray>
</Points>
<Cells>
<DataArray  type="UInt32"  Name="connectivity"  format="ascii">0 1  1 2  2 3  3 4  4 5  5 6  6 7  7 8  8 9  9 10  10 11  11 12  12 13  13 14  14 15  15 16  16 17  17 18  18 19  19 20  20 21  21 22  22 23  23 24  24 25  25 26  26 27  27 28  28 29  29 30  30 31  31 32  32 33  33 34  34 35  35 36  36 37  37 38  38 39  39 40  40 41  41 42  42 43  43 44  44 45  45 46  46 47  47 48  48 49  49 50  50 51  51 52  52 53  53 54  54 55  55 56  56 57  57 58  58 59  59 60  60 61  61 62  62 63  63 64  64 65  65 66  66 67  67 68  68 69  69 70  70 71  71 72  72 73  73 74  74 75  75 76  76 77  77 78  78 79  79 80  80 81  81 82  82 83  83 84  84 85  85 86  86 87  87 88  88 89  89 90  90 91  91 92  92 93  93 94  94 95  95 96  96 97  97 98  98 99  99 100  </DataArray>
<DataArray  type="UInt32"  Name="offsets"  format="ascii">2 4 6 8 10 12 14 16 18 20 22 24 26 28 30 32 34 36 38 40 42 44 46 48 50 52 54 56 58 60 62 64 66 68 70 72 74 76 78 80 82 84 86 88 90 92 94 96 98 100 102 104 106 108 110 112 114 116 118 120 122 124 126 128 130 132 134 136 138 140 142 144 146 148 150 152 154 156 158 160 162 164 166 168 170 172 174 176 178 180 182 184 186 188 190 192 194 196 198 200 </DataArray>
<DataArray  type="UInt8"  Name="types"  format="ascii">3 3 3 3 3 3 3 3 3 3 3 3 3 3 3 3 3 3 3 3 3 3 3 3 3 3 3 3 3 3 3 3 3 3 3 3 3 3 3 3 3 3 3 3 3 3 3 3 3 3 3 3 3 3 3 3 3 3 3 3 3 3 3 3 3 3 3 3 3 3 3 3 3 3 3 3 3 3 3 3 3 3 3 3 3 3 3 3 3 3 3 3 3 3 3 3 3 3 3 3 </DataArray>
</Cells>
<PointData  Scalars="f_14"> 
<DataArray  type="Float64"  Name="f_14"  format="ascii">3.4559487869257184e-04  3.4923821604519685e-04  3.6022520028620021e-04  3.7872727627409722e-04  4.0503194654662399e-04  4.3954541320440738e-04  4.8279627683598943e-04  5.3544029240258628e-04  5.9826618145253829e-04  6.7220249909805065e-04  7.5832555277967426e-04  8.5786836788967643e-04  9.7223069275087417e-04  1.1029900321847417e-03  1.2519136948896362e-03  1.4209718350318824e-03  1.6123514627822560e-03  1.8284713919702153e-03  2.0719980855504875e-03  2.3458623511649693e-03  2.6532768297338103e-03  2.9977542097330175e-03  3.3831260886369482e-03  3.8135623909637969e-03  4.2935912395184895e-03  4.8281191628566185e-03  5.4224515077896966e-03  6.0823129110305187e-03  6.8138676689715504e-03  7.6237398292529138e-03  8.5190328123833283e-03  9.5073483564202792e-03  1.0596804562805914e-02  1.1796052807122202e-02  1.3114293265016593e-02  1.4561288791117089e-02  1.6147376877672884e-02  1.7883479410202536e-02  1.9781109929889990e-02  2.1852378107125925e-02  2.4109991127731406e-02  2.6567251693300296e-02  2.9238052340021404e-02  3.2136865786542963e-02  3.5278731031144914e-02  3.8679234931896102e-02  4.2354489020759327e-02  4.6321101323900223e-02  5.0596142985852487e-02  5.5197109524724348e-02  6.0141876579305642e-02  6.5448650046671344e-02  7.1135910550569323e-02  7.7222352226327312e-02  8.3726815856980205e-02  9.0668216447479577e-02  9.8065465378833219e-02  1.0593738734137866e-01  1.1430263230562919e-01  1.2317958284965952e-01  1.3258625722322542e-01  1.4254020859003713e-01  1.5305842095014838e-01  1.6415720230350819e-01  1.7585207567258704e-01  1.8815766865584560e-01  2.0108760223385166e-01  2.1465437959528691e-01  2.2886927579013985e-01  2.4374222905130516e-01  2.5928173465290055e-01  2.7549474219321329e-01  2.9238655720171614e-01  3.0996074797253836e-01  3.2821905852071676e-01  3.4716132854216447e-01  3.6678542123337465e-01  3.8708715979229530e-01  4.0806027337764961e-01  4.2969635325028910e-01  4.5198481975734928e-01  4.7491290074830306e-01  4.9846562193213395e-01  5.2262580959733296e-01  5.4737410602211056e-01  5.7268899780193194e-01  5.9854685721628842e-01  6.2492199664751513e-01  6.5178673595265701e-01  6.7911148257610454e-01  7.0686482407715467e-01  7.3501363263419639e-01  7.6352318097710048e-01  7.9235726909295345e-01  8.2147836094876314e-01  8.5084773037941941e-01  8.8042561520118312e-01  9.1017137853139285e-01  9.4004367622488250e-01  9.7000062927771913e-01  1.0000000000000000e+00  </DataArray> 
</PointData> 
</Piece>
</UnstructuredGrid>
</VTKFile>