<?xml version="1.0"?>
<VTKFile type="UnstructuredGrid"  version="0.1"  >
<UnstructuredGrid>
<Piece  NumberOfPoints="101" NumberOfCells="100">
<Points>
<DataArray  type="Float64"  NumberOfComponents="3"  format="ascii">0 0 0  0.001 0 0  0.002 0 0  0.003 0 0  0.004 0 0  0.005 0 0  0.006000000000000001 0 0  0.007000000000000001 0 0  0.008 0 0  0.009000000000000001 0 0  0.01 0 0  0.011 0 0  0.012 0 0  0.013 0 0  0.014 0 0  0.015 0 0  0.016 0 0  0.017 0 0  0.018 0 0  0.019 0 0  0.02 0 0  0.021 0 0  0.022 0 0  0.023 0 0  0.024 0 0  0.025 0 0  0.026 0 0  0.027 0 0  0.028 0 0  0.029 0 0  0.03 0 0  0.031 0 0  0.032 0 0  0.033 0 0  0.034 0 0  0.035 0 0  0.036 0 0  0.03700000000000001 0 0  0.03800000000000001 0 0  0.03900000000000001 0 0  0.04 0 0  0.04100000000000001 0 0  0.042 0 0  0.043 0 0  0.044 0 0  0.045 0 0  0.04600000000000001 0 0  0.047 0 0  0.04800000000000001 0 0  0.049 0 0  0.05 0 0  0.051 0 0  0.052 0 0  0.05300000000000001 0 0  0.05400000000000001 0 0  0.055 0 0  0.05600000000000001 0 0  0.057 0 0  0.05800000000000001 0 0  0.059 0 0  0.06 0 0  0.06100000000000001 0 0  0.062 0 0  0.063 0 0  0.064 0 0  0.065 0 0  0.066 0 0  0.067 0 0  0.068 0 0  0.06900000000000001 0 0  0.07000000000000001 0 0  0.07100000000000001 0 0  0.07200000000000001 0 0  0.07300000000000001 0 0  0.07400000000000001 0 0  0.075 0 0  0.07600000000000001 0 0  0.077 0 0  0.07800000000000001 0 0  0.079 0 0  0.08 0 0  0.081 0 0  0.08200000000000002 0 0  0.083 0 0  0.08400000000000001 0 0  0.08500000000000001 0 0  0.08599999999999999 0 0  0.08700000000000001 0 0  0.08800000000000001 0 0  0.08900000000000001 0 0  0.09 0 0  0.091 0 0  0.09200000000000001 0 0  0.09300000000000001 0 0  0.094 0 0  0.095 0 0  0.09600000000000002 0 0  0.09700000000000002 0 0  0.098 0 0  0.099 0 0  0.1 0 0  </DataArray>
</Points>
<Cells>
<DataArray  type="UInt32"  Name="connectivity"  format="ascii">0 1  1 2  2 3  3 4  4 5  5 6  6 7  7 8  8 9  9 10  10 11  11 12  12 13  13 14  14 15  15 16  16 17  17 18  18 19  19 20  20 21  21 22  22 23  23 24  24 25  25 26  26 27  27 28  28 29  29 30  30 31  31 32  32 33  33 34  34 35  35 36  36 37  37 38  38 39  39 40  40 41  41 42  42 43  43 44  44 45  45 46  46 47  47 48  48 49  49 50  50 51  51 52  52 53  53 54  54 55  55 56  56 57  57 58  58 59  59 60  60 61  61 62  62 63  63 64  64 65  65 66  66 67  67 68  68 69  69 70  70 71  71 72  72 73  73 74  74 75  75 76  76 77  77 78  78 79  79 80  80 81  81 82  82 83  83 84  84 85  85 86  86 87  87 88  88 89  89 90  90 91  91 92  92 93  93 94  94 95  95 96  96 97  97 98  98 99  99 100  </DataArray>
<DataArray  type="UInt32"  Name="offsets"  format="ascii">2 4 6 8 10 12 14 16 18 20 22 24 26 28 30 32 34 36 38 40 42 44 46 48 50 52 54 56 58 60 62 64 66 68 70 72 74 76 78 80 82 84 86 88 90 92 94 96 98 100 102 104 106 108 110 112 114 116 118 120 122 124 126 128 130 132 134 136 138 140 142 144 146 148 150 152 154 156 158 160 162 164 166 168 170 172 174 176 178 180 182 184 186 188 190 192 194 196 198 200 </DataArray>
<DataArray  type="UInt8"  Name="types"  format="ascii">3 3 3 3 3 3 3 3 3 3 3 3 3 3 3 3 3 3 3 3 3 3 3 3 3 3 3 3 3 3 3 3 3 3 3 3 3 3 3 3 3 3 3 3 3 3 3 3 3 3 3 3 3 3 3 3 3 3 3 3 3 3 3 3 3 3 3 3 3 3 3 3 3 3 3 3 3 3 3 3 3 3 3 3 3 3 3 3 3 3 3 3 3 3 3 3 3 3 3 3 </DataArray>
</Cells>
<PointData  Scalars="f_14"> 
<DataArray  type="Float64"  Name="f_14"  format="ascii">2.5183538091544016e-08  2.6518640634712931e-08  3.0649151930095146e-08  3.7960783775073030e-08  4.9130728318013866e-08  6.5181544545209546e-08  8.7561476037990730e-08  1.1825636291604489e-07  1.5994020397547642e-07  2.1617364736455441e-07  2.9166233019444990e-07  3.9259014980219183e-07  5.2704634405480258e-07  7.0556980995175759e-07  9.4183953731612634e-07  1.2535465300488454e-06  1.6634902975351127e-06  2.2009521023999646e-06  2.9034078377676731e-06  3.8186558749480935e-06  5.0074496715026954e-06  6.5467415570823649e-06  8.5336631059176870e-06  1.1090389024155319e-05  1.4370055656572321e-05  1.8563932129979819e-05  2.3910071811678267e-05  3.0703704094522642e-05  3.9309661338625782e-05  5.0177172780935532e-05  6.3857395883134863e-05  8.1024095251149350e-05  1.0249791903455834e-04  1.2927476146676648e-04  1.6255873653567721e-04  2.0380031999321622e-04  2.5474024303604869e-04  3.1745973873374385e-04  3.9443774906550925e-04  4.8861569340147987e-04  6.0347037534393664e-04  7.4309556076381466e-04  9.1229269226238857e-04  1.1166711107874249e-03  1.3627580304846104e-03  1.6581183550773190e-03  2.0114842305748583e-03  2.4328939979553865e-03  2.9338399395087158e-03  3.5274239036269771e-03  4.2285195461003733e-03  5.0539395439469208e-03  6.0226057246438999e-03  7.1557196152856103e-03  8.4769304605324253e-03  1.0012497295088867e-02  1.1791441197693681e-02  1.3845683412984255e-02  1.6210164620639386e-02  1.8922940274943512e-02  2.2025246650555174e-02  2.5561532030694896e-02  2.9579447381244833e-02  3.4129790886912863e-02  3.9266400900967807e-02  4.5045992193400927e-02  5.1527930886154934e-02  5.8773944147077317e-02  6.6847761580804410e-02  7.5814686303974851e-02  8.5741094917270305e-02  9.6693866974732229e-02  1.0873974608192151e-01  1.2194463640237933e-01  1.3637284008356457e-01  1.5208624288991901e-01  1.6914345710746423e-01  1.8759893251244159e-01  2.0750204782391207e-01  2.2889619653310581e-01  2.5181788226698509e-01  2.7629583984794792e-01  3.0235019890785336e-01  3.2999170726012317e-01  3.5922103119388360e-01  3.9002814940349367e-01  4.2239185639088861e-01  4.5627938987442801e-01  4.9164619501682910e-01  5.2843583617005929e-01  5.6658006436361696e-01  6.0599904598417142e-01  6.4660175507015805e-01  6.8828652844594973e-01  7.3094177962588147e-01  7.7444686411372654e-01  8.1867308549622309e-01  8.6348482866817833e-01  9.0874080371699539e-01  9.5429538151598881e-01  1.0000000000000000e+00  </DataArray> 
</PointData> 
</Piece>
</UnstructuredGrid>
</VTKFile>