<?xml version="1.0"?>
<VTKFile type="UnstructuredGrid"  version="0.1"  >
<UnstructuredGrid>
<Piece  NumberOfPoints="101" NumberOfCells="100">
<Points>
<DataArray  type="Float64"  NumberOfComponents="3"  format="ascii">0 0 0  0.001 0 0  0.002 0 0  0.003 0 0  0.004 0 0  0.005 0 0  0.006000000000000001 0 0  0.007000000000000001 0 0  0.008 0 0  0.009000000000000001 0 0  0.01 0 0  0.011 0 0  0.012 0 0  0.013 0 0  0.014 0 0  0.015 0 0  0.016 0 0  0.017 0 0  0.018 0 0  0.019 0 0  0.02 0 0  0.021 0 0  0.022 0 0  0.023 0 0  0.024 0 0  0.025 0 0  0.026 0 0  0.027 0 0  0.028 0 0  0.029 0 0  0.03 0 0  0.031 0 0  0.032 0 0  0.033 0 0  0.034 0 0  0.035 0 0  0.036 0 0  0.03700000000000001 0 0  0.03800000000000001 0 0  0.03900000000000001 0 0  0.04 0 0  0.04100000000000001 0 0  0.042 0 0  0.043 0 0  0.044 0 0  0.045 0 0  0.04600000000000001 0 0  0.047 0 0  0.04800000000000001 0 0  0.049 0 0  0.05 0 0  0.051 0 0  0.052 0 0  0.05300000000000001 0 0  0.05400000000000001 0 0  0.055 0 0  0.05600000000000001 0 0  0.057 0 0  0.05800000000000001 0 0  0.059 0 0  0.06 0 0  0.06100000000000001 0 0  0.062 0 0  0.063 0 0  0.064 0 0  0.065 0 0  0.066 0 0  0.067 0 0  0.068 0 0  0.06900000000000001 0 0  0.07000000000000001 0 0  0.07100000000000001 0 0  0.07200000000000001 0 0  0.07300000000000001 0 0  0.07400000000000001 0 0  0.075 0 0  0.07600000000000001 0 0  0.077 0 0  0.07800000000000001 0 0  0.079 0 0  0.08 0 0  0.081 0 0  0.08200000000000002 0 0  0.083 0 0  0.08400000000000001 0 0  0.08500000000000001 0 0  0.08599999999999999 0 0  0.08700000000000001 0 0  0.08800000000000001 0 0  0.08900000000000001 0 0  0.09 0 0  0.091 0 0  0.09200000000000001 0 0  0.09300000000000001 0 0  0.094 0 0  0.095 0 0  0.09600000000000002 0 0  0.09700000000000002 0 0  0.098 0 0  0.099 0 0  0.1 0 0  </DataArray>
</Points>
<Cells>
<DataArray  type="UInt32"  Name="connectivity"  format="ascii">0 1  1 2  2 3  3 4  4 5  5 6  6 7  7 8  8 9  9 10  10 11  11 12  12 13  13 14  14 15  15 16  16 17  17 18  18 19  19 20  20 21  21 22  22 23  23 24  24 25  25 26  26 27  27 28  28 29  29 30  30 31  31 32  32 33  33 34  34 35  35 36  36 37  37 38  38 39  39 40  40 41  41 42  42 43  43 44  44 45  45 46  46 47  47 48  48 49  49 50  50 51  51 52  52 53  53 54  54 55  55 56  56 57  57 58  58 59  59 60  60 61  61 62  62 63  63 64  64 65  65 66  66 67  67 68  68 69  69 70  70 71  71 72  72 73  73 74  74 75  75 76  76 77  77 78  78 79  79 80  80 81  81 82  82 83  83 84  84 85  85 86  86 87  87 88  88 89  89 90  90 91  91 92  92 93  93 94  94 95  95 96  96 97  97 98  98 99  99 100  </DataArray>
<DataArray  type="UInt32"  Name="offsets"  format="ascii">2 4 6 8 10 12 14 16 18 20 22 24 26 28 30 32 34 36 38 40 42 44 46 48 50 52 54 56 58 60 62 64 66 68 70 72 74 76 78 80 82 84 86 88 90 92 94 96 98 100 102 104 106 108 110 112 114 116 118 120 122 124 126 128 130 132 134 136 138 140 142 144 146 148 150 152 154 156 158 160 162 164 166 168 170 172 174 176 178 180 182 184 186 188 190 192 194 196 198 200 </DataArray>
<DataArray  type="UInt8"  Name="types"  format="ascii">3 3 3 3 3 3 3 3 3 3 3 3 3 3 3 3 3 3 3 3 3 3 3 3 3 3 3 3 3 3 3 3 3 3 3 3 3 3 3 3 3 3 3 3 3 3 3 3 3 3 3 3 3 3 3 3 3 3 3 3 3 3 3 3 3 3 3 3 3 3 3 3 3 3 3 3 3 3 3 3 3 3 3 3 3 3 3 3 3 3 3 3 3 3 3 3 3 3 3 3 </DataArray>
</Cells>
<PointData  Scalars="f_14"> 
<DataArray  type="Float64"  Name="f_14"  format="ascii">1.8103952831365761e-15  2.1675622968383043e-15  3.3722421111016992e-15  5.8706247057059523e-15  1.0577114493789539e-14  1.9188410832954021e-14  3.4756949169978884e-14  6.2703995681331812e-14  1.1258470335337752e-13  2.0113794485416660e-13  3.5752174680816611e-13  6.3224656183025552e-13  1.1123285452814263e-12  1.9468427814061283e-12  3.3897600471350393e-12  5.8713310730997529e-12  1.0116331997316198e-11  1.7338754104319327e-11  2.9560412997568663e-11  5.0129163221357888e-11  8.4556574935602358e-11  1.4186360014370516e-10  2.3672875351992170e-10  3.9289576105773745e-10  6.4854470334081682e-10  1.0647037116262508e-09  1.7383372222452342e-09  2.8225778931501163e-09  4.5577954165628412e-09  7.3189900571345281e-09  1.1687604189575023e-08  1.8559596718319563e-08  2.9306982043180813e-08  4.6017618666795605e-08  7.1848674497604082e-08  1.1154399660270189e-07  1.7218600942874281e-07  2.6428060871907291e-07  4.0331116006942118e-07  6.1194809222255567e-07  9.2316731214245296e-07  1.3846181259086866e-06  2.0646946832469548e-06  3.0609101201214794e-06  4.5113562129938751e-06  6.6102606748100002e-06  9.6289366291361174e-06  1.3943761431612942e-05  2.0073231017091774e-05  2.8726615537901800e-05  4.0867293236191886e-05  5.7794458556878547e-05  8.1247577237355276e-05  1.1353867675217357e-04  1.5771828562024520e-04  2.1778152749744035e-04  2.9892147884615978e-04  4.0783733950567464e-04  5.5310515447825747e-04  7.4561865787234317e-04  9.9910716821539902e-04  1.3307362216085682e-03  1.7617946569864337e-03  2.3184690452446046e-03  3.0327025800145581e-03  3.9431307551546198e-03  5.0960803253327159e-03  6.5466112309738216e-03  8.3595735000374875e-03  1.0610642846515026e-02  1.3387290106292740e-02  1.6789631233044406e-02  2.0931096874157389e-02  2.5938854204713868e-02  3.1953909426591480e-02  3.9130817876958449e-02  4.7636930750232134e-02  5.7651113652628504e-02  6.9361883064471525e-02  8.2964922554171344e-02  9.8659961264024959e-02  1.1664702243686391e-01  1.3712207887427272e-01  1.6027218413466954e-01  1.8627018155578126e-01  2.1526912607198298e-01  2.4739658431357087e-01  2.8274900452503560e-01  3.2138636734473991e-01  3.6332733954378110e-01  4.0854515385347123e-01  4.5696442792756869e-01  5.0845911380674147e-01  5.6285173620264262e-01  6.1991403447139137e-01  6.7936907101639832e-01  7.4089481043672101e-01  8.0412911195579651e-01  8.6867601583488119e-01  9.3411314606217044e-01  1.0000000000000000e+00  </DataArray> 
</PointData> 
</Piece>
</UnstructuredGrid>
</VTKFile>