<?xml version="1.0"?>
<VTKFile type="UnstructuredGrid"  version="0.1"  >
<UnstructuredGrid>
<Piece  NumberOfPoints="101" NumberOfCells="100">
<Points>
<DataArray  type="Float64"  NumberOfComponents="3"  format="ascii">0 0 0  0.001 0 0  0.002 0 0  0.003 0 0  0.004 0 0  0.005 0 0  0.006000000000000001 0 0  0.007000000000000001 0 0  0.008 0 0  0.009000000000000001 0 0  0.01 0 0  0.011 0 0  0.012 0 0  0.013 0 0  0.014 0 0  0.015 0 0  0.016 0 0  0.017 0 0  0.018 0 0  0.019 0 0  0.02 0 0  0.021 0 0  0.022 0 0  0.023 0 0  0.024 0 0  0.025 0 0  0.026 0 0  0.027 0 0  0.028 0 0  0.029 0 0  0.03 0 0  0.031 0 0  0.032 0 0  0.033 0 0  0.034 0 0  0.035 0 0  0.036 0 0  0.03700000000000001 0 0  0.03800000000000001 0 0  0.03900000000000001 0 0  0.04 0 0  0.04100000000000001 0 0  0.042 0 0  0.043 0 0  0.044 0 0  0.045 0 0  0.04600000000000001 0 0  0.047 0 0  0.04800000000000001 0 0  0.049 0 0  0.05 0 0  0.051 0 0  0.052 0 0  0.05300000000000001 0 0  0.05400000000000001 0 0  0.055 0 0  0.05600000000000001 0 0  0.057 0 0  0.05800000000000001 0 0  0.059 0 0  0.06 0 0  0.06100000000000001 0 0  0.062 0 0  0.063 0 0  0.064 0 0  0.065 0 0  0.066 0 0  0.067 0 0  0.068 0 0  0.06900000000000001 0 0  0.07000000000000001 0 0  0.07100000000000001 0 0  0.07200000000000001 0 0  0.07300000000000001 0 0  0.07400000000000001 0 0  0.075 0 0  0.07600000000000001 0 0  0.077 0 0  0.07800000000000001 0 0  0.079 0 0  0.08 0 0  0.081 0 0  0.08200000000000002 0 0  0.083 0 0  0.08400000000000001 0 0  0.08500000000000001 0 0  0.08599999999999999 0 0  0.08700000000000001 0 0  0.08800000000000001 0 0  0.08900000000000001 0 0  0.09 0 0  0.091 0 0  0.09200000000000001 0 0  0.09300000000000001 0 0  0.094 0 0  0.095 0 0  0.09600000000000002 0 0  0.09700000000000002 0 0  0.098 0 0  0.099 0 0  0.1 0 0  </DataArray>
</Points>
<Cells>
<DataArray  type="UInt32"  Name="connectivity"  format="ascii">0 1  1 2  2 3  3 4  4 5  5 6  6 7  7 8  8 9  9 10  10 11  11 12  12 13  13 14  14 15  15 16  16 17  17 18  18 19  19 20  20 21  21 22  22 23  23 24  24 25  25 26  26 27  27 28  28 29  29 30  30 31  31 32  32 33  33 34  34 35  35 36  36 37  37 38  38 39  39 40  40 41  41 42  42 43  43 44  44 45  45 46  46 47  47 48  48 49  49 50  50 51  51 52  52 53  53 54  54 55  55 56  56 57  57 58  58 59  59 60  60 61  61 62  62 63  63 64  64 65  65 66  66 67  67 68  68 69  69 70  70 71  71 72  72 73  73 74  74 75  75 76  76 77  77 78  78 79  79 80  80 81  81 82  82 83  83 84  84 85  85 86  86 87  87 88  88 89  89 90  90 91  91 92  92 93  93 94  94 95  95 96  96 97  97 98  98 99  99 100  </DataArray>
<DataArray  type="UInt32"  Name="offsets"  format="ascii">2 4 6 8 10 12 14 16 18 20 22 24 26 28 30 32 34 36 38 40 42 44 46 48 50 52 54 56 58 60 62 64 66 68 70 72 74 76 78 80 82 84 86 88 90 92 94 96 98 100 102 104 106 108 110 112 114 116 118 120 122 124 126 128 130 132 134 136 138 140 142 144 146 148 150 152 154 156 158 160 162 164 166 168 170 172 174 176 178 180 182 184 186 188 190 192 194 196 198 200 </DataArray>
<DataArray  type="UInt8"  Name="types"  format="ascii">3 3 3 3 3 3 3 3 3 3 3 3 3 3 3 3 3 3 3 3 3 3 3 3 3 3 3 3 3 3 3 3 3 3 3 3 3 3 3 3 3 3 3 3 3 3 3 3 3 3 3 3 3 3 3 3 3 3 3 3 3 3 3 3 3 3 3 3 3 3 3 3 3 3 3 3 3 3 3 3 3 3 3 3 3 3 3 3 3 3 3 3 3 3 3 3 3 3 3 3 </DataArray>
</Cells>
<PointData  Scalars="f_14"> 
<DataArray  type="Float64"  Name="f_14"  format="ascii">1.7269662444578199e-06  1.7789906229863568e-06  1.9377146808814597e-06  2.2111993411545223e-06  2.6132431486132473e-06  3.1639388590278495e-06  3.8904749824700952e-06  4.8282049688322963e-06  6.0220137264686982e-06  7.5280185453907698e-06  9.4156493234070311e-06  1.1770161326109582e-05  1.4695642596406932e-05  1.8318587597927475e-05  2.2792118742243639e-05  2.8300948103780096e-05  3.5067182834036575e-05  4.3357089484100656e-05  5.3488944532903876e-05  6.5842110761199350e-05  8.0867491527623477e-05  9.9099527265814568e-05  1.2116991035130166e-04  1.4782320554969957e-04  1.7993457316190569e-04  2.1852980027635706e-04  2.6480785171205281e-04  3.2016615571949544e-04  3.8622883967509873e-04  4.6487812718308004e-04  5.5828909947052861e-04  6.6896800997805043e-04  7.9979432084450238e-04  9.5406660279383465e-04  1.1355524050086956e-03  1.3485421582166424e-03  1.5979071217881204e-03  1.8891613236185006e-03  2.2285273695393341e-03  2.6230059167429479e-03  3.0804485131778587e-03  3.6096334022860934e-03  4.2203437802857133e-03  4.9234478722371038e-03  5.7309800644884251e-03  6.6562221962542488e-03  7.7137839738989121e-03  8.9196813302184520e-03  1.0291411410279795e-02  1.1848022728195308e-02  1.3610178908960191e-02  1.5600214309846830e-02  1.7842179710799808e-02  2.0361876176968916e-02  2.3186875133246795e-02  2.6346522654758571e-02  2.9871925972922150e-02  3.3795920227997503e-02  3.8153013569684112e-02  4.2979308820547686e-02  4.8312400075510777e-02  5.4191242816212973e-02  6.0655996372768223e-02  6.7747837867331906e-02  7.5508747122847664e-02  8.3981262414090596e-02  9.3208207373090254e-02  1.0323238983235365e-01  1.1409627389084326e-01  1.2584162701196078e-01  1.3850914450120178e-01  1.5213805425394961e-01  1.6676570520040193e-01  1.8242714339345631e-01  1.9915468017459600e-01  2.1697745730022924e-01  2.3592101430439824e-01  2.5600686370147935e-01  2.7725207988332912e-01  2.9966890772910515e-01  3.2326439701396309e-01  3.4804006866769988e-01  3.7399161879098936e-01  4.0110866608190265e-01  4.2937454795818247e-01  4.5876617018289162e-01  4.8925391421689390e-01  5.2080160583795565e-01  5.5336654779250372e-01  5.8689961839406868e-01  6.2134543706611833e-01  6.5664259686244220e-01  6.9272396300294725e-01  7.2951703545560553e-01  7.6694437259590664e-01  8.0492407200354021e-01  8.4337030353197817e-01  8.8219388892934592e-01  9.2130292151652327e-01  9.6060341875729283e-01  1.0000000000000000e+00  </DataArray> 
</PointData> 
</Piece>
</UnstructuredGrid>
</VTKFile>