<?xml version="1.0"?>
<VTKFile type="UnstructuredGrid"  version="0.1"  >
<UnstructuredGrid>
<Piece  NumberOfPoints="101" NumberOfCells="100">
<Points>
<DataArray  type="Float64"  NumberOfComponents="3"  format="ascii">0 0 0  0.001 0 0  0.002 0 0  0.003 0 0  0.004 0 0  0.005 0 0  0.006000000000000001 0 0  0.007000000000000001 0 0  0.008 0 0  0.009000000000000001 0 0  0.01 0 0  0.011 0 0  0.012 0 0  0.013 0 0  0.014 0 0  0.015 0 0  0.016 0 0  0.017 0 0  0.018 0 0  0.019 0 0  0.02 0 0  0.021 0 0  0.022 0 0  0.023 0 0  0.024 0 0  0.025 0 0  0.026 0 0  0.027 0 0  0.028 0 0  0.029 0 0  0.03 0 0  0.031 0 0  0.032 0 0  0.033 0 0  0.034 0 0  0.035 0 0  0.036 0 0  0.03700000000000001 0 0  0.03800000000000001 0 0  0.03900000000000001 0 0  0.04 0 0  0.04100000000000001 0 0  0.042 0 0  0.043 0 0  0.044 0 0  0.045 0 0  0.04600000000000001 0 0  0.047 0 0  0.04800000000000001 0 0  0.049 0 0  0.05 0 0  0.051 0 0  0.052 0 0  0.05300000000000001 0 0  0.05400000000000001 0 0  0.055 0 0  0.05600000000000001 0 0  0.057 0 0  0.05800000000000001 0 0  0.059 0 0  0.06 0 0  0.06100000000000001 0 0  0.062 0 0  0.063 0 0  0.064 0 0  0.065 0 0  0.066 0 0  0.067 0 0  0.068 0 0  0.06900000000000001 0 0  0.07000000000000001 0 0  0.07100000000000001 0 0  0.07200000000000001 0 0  0.07300000000000001 0 0  0.07400000000000001 0 0  0.075 0 0  0.07600000000000001 0 0  0.077 0 0  0.07800000000000001 0 0  0.079 0 0  0.08 0 0  0.081 0 0  0.08200000000000002 0 0  0.083 0 0  0.08400000000000001 0 0  0.08500000000000001 0 0  0.08599999999999999 0 0  0.08700000000000001 0 0  0.08800000000000001 0 0  0.08900000000000001 0 0  0.09 0 0  0.091 0 0  0.09200000000000001 0 0  0.09300000000000001 0 0  0.094 0 0  0.095 0 0  0.09600000000000002 0 0  0.09700000000000002 0 0  0.098 0 0  0.099 0 0  0.1 0 0  </DataArray>
</Points>
<Cells>
<DataArray  type="UInt32"  Name="connectivity"  format="ascii">0 1  1 2  2 3  3 4  4 5  5 6  6 7  7 8  8 9  9 10  10 11  11 12  12 13  13 14  14 15  15 16  16 17  17 18  18 19  19 20  20 21  21 22  22 23  23 24  24 25  25 26  26 27  27 28  28 29  29 30  30 31  31 32  32 33  33 34  34 35  35 36  36 37  37 38  38 39  39 40  40 41  41 42  42 43  43 44  44 45  45 46  46 47  47 48  48 49  49 50  50 51  51 52  52 53  53 54  54 55  55 56  56 57  57 58  58 59  59 60  60 61  61 62  62 63  63 64  64 65  65 66  66 67  67 68  68 69  69 70  70 71  71 72  72 73  73 74  74 75  75 76  76 77  77 78  78 79  79 80  80 81  81 82  82 83  83 84  84 85  85 86  86 87  87 88  88 89  89 90  90 91  91 92  92 93  93 94  94 95  95 96  96 97  97 98  98 99  99 100  </DataArray>
<DataArray  type="UInt32"  Name="offsets"  format="ascii">2 4 6 8 10 12 14 16 18 20 22 24 26 28 30 32 34 36 38 40 42 44 46 48 50 52 54 56 58 60 62 64 66 68 70 72 74 76 78 80 82 84 86 88 90 92 94 96 98 100 102 104 106 108 110 112 114 116 118 120 122 124 126 128 130 132 134 136 138 140 142 144 146 148 150 152 154 156 158 160 162 164 166 168 170 172 174 176 178 180 182 184 186 188 190 192 194 196 198 200 </DataArray>
<DataArray  type="UInt8"  Name="types"  format="ascii">3 3 3 3 3 3 3 3 3 3 3 3 3 3 3 3 3 3 3 3 3 3 3 3 3 3 3 3 3 3 3 3 3 3 3 3 3 3 3 3 3 3 3 3 3 3 3 3 3 3 3 3 3 3 3 3 3 3 3 3 3 3 3 3 3 3 3 3 3 3 3 3 3 3 3 3 3 3 3 3 3 3 3 3 3 3 3 3 3 3 3 3 3 3 3 3 3 3 3 3 </DataArray>
</Cells>
<PointData  Scalars="f_14"> 
<DataArray  type="Float64"  Name="f_14"  format="ascii">8.5204291001799907e-05  8.6458370112701098e-05  9.0249409721978929e-05  9.6664266087603646e-05  1.0584920048002631e-04  1.1801214001066096e-04  1.3342586176674111e-04  1.5243211885165444e-04  1.7544673170330832e-04  2.0296567242495856e-04  2.3557217371532950e-04  2.7394489722646877e-04  3.1886719870379254e-04  3.7123752896486861e-04  4.3208101054016435e-04  5.0256222951612986e-04  5.8399928067275661e-04  6.7787910127767304e-04  7.8587412477143070e-04  9.0986027994108558e-04  1.0519363539236194e-03  1.2144447284066935e-03  1.3999934876112927e-03  1.6114798839719370e-03  1.8521151328147125e-03  2.1254504907309317e-03  2.4354045537380354e-03  2.7862916907201492e-03  3.1828515050906967e-03  3.6302791931955439e-03  4.1342566417931562e-03  4.7009840791655180e-03  5.3372120652321938e-03  6.0502735757094602e-03  6.8481159041745608e-03  7.7393320742104085e-03  8.7331914220162791e-03  9.8396689784230277e-03  1.1069473248641834e-02  1.2434071958843419e-02  1.3945715311389401e-02  1.5617456265834190e-02  1.7463167341326032e-02  1.9497553418423720e-02  2.1736160005280343e-02  2.4195376425303176e-02  2.6892433381436535e-02  2.9845394356765965e-02  3.3073140322807733e-02  3.6595347246161342e-02  4.0432455911648672e-02  4.4605633616021323e-02  4.9136727331090660e-02  5.4048207988895695e-02  5.9363105604331133e-02  6.5104935022427590e-02  7.1297612157975004e-02  7.7965360684019588e-02  8.5132609222393005e-02  9.2823879193120740e-02  1.0106366358942818e-01  1.0987629706004193e-01  1.1928581779937168e-01  1.2931582186757107e-01  1.3998931068490469e-01  1.5132853256667575e-01  1.6335481928443515e-01  1.7608841875450298e-01  1.8954832506410632e-01  2.0375210714678280e-01  2.1871573751022594e-01  2.3445342249961162e-01  2.5097743564586650e-01  2.6829795569965420e-01  2.8642291098654332e-01  3.0535783173553388e-01  3.2510571203072924e-01  3.4566688301353793e-01  3.6703889891978830e-01  3.8921643747212942e-01  4.1219121606315051e-01  4.3595192505896324e-01  4.6048417942729147e-01  4.8577048974928022e-01  5.1179025351162688e-01  5.3851976739681373e-01  5.6593226109616146e-01  5.9399795296525415e-01  6.2268412762651970e-01  6.5195523540203437e-01  6.8177301323376283e-01  7.1209662652149819e-01  7.4288283108372655e-01  7.7408615422665261e-01  8.0565909369475019e-01  8.3755233307546562e-01  8.6971497204399673e-01  9.0209476966413893e-01  9.3463839881048993e-01  9.6729170964811451e-01  1.0000000000000000e+00  </DataArray> 
</PointData> 
</Piece>
</UnstructuredGrid>
</VTKFile>