<?xml version="1.0"?>
<VTKFile type="UnstructuredGrid"  version="0.1"  >
<UnstructuredGrid>
<Piece  NumberOfPoints="101" NumberOfCells="100">
<Points>
<DataArray  type="Float64"  NumberOfComponents="3"  format="ascii">0 0 0  0.001 0 0  0.002 0 0  0.003 0 0  0.004 0 0  0.005 0 0  0.006000000000000001 0 0  0.007000000000000001 0 0  0.008 0 0  0.009000000000000001 0 0  0.01 0 0  0.011 0 0  0.012 0 0  0.013 0 0  0.014 0 0  0.015 0 0  0.016 0 0  0.017 0 0  0.018 0 0  0.019 0 0  0.02 0 0  0.021 0 0  0.022 0 0  0.023 0 0  0.024 0 0  0.025 0 0  0.026 0 0  0.027 0 0  0.028 0 0  0.029 0 0  0.03 0 0  0.031 0 0  0.032 0 0  0.033 0 0  0.034 0 0  0.035 0 0  0.036 0 0  0.03700000000000001 0 0  0.03800000000000001 0 0  0.03900000000000001 0 0  0.04 0 0  0.04100000000000001 0 0  0.042 0 0  0.043 0 0  0.044 0 0  0.045 0 0  0.04600000000000001 0 0  0.047 0 0  0.04800000000000001 0 0  0.049 0 0  0.05 0 0  0.051 0 0  0.052 0 0  0.05300000000000001 0 0  0.05400000000000001 0 0  0.055 0 0  0.05600000000000001 0 0  0.057 0 0  0.05800000000000001 0 0  0.059 0 0  0.06 0 0  0.06100000000000001 0 0  0.062 0 0  0.063 0 0  0.064 0 0  0.065 0 0  0.066 0 0  0.067 0 0  0.068 0 0  0.06900000000000001 0 0  0.07000000000000001 0 0  0.07100000000000001 0 0  0.07200000000000001 0 0  0.07300000000000001 0 0  0.07400000000000001 0 0  0.075 0 0  0.07600000000000001 0 0  0.077 0 0  0.07800000000000001 0 0  0.079 0 0  0.08 0 0  0.081 0 0  0.08200000000000002 0 0  0.083 0 0  0.08400000000000001 0 0  0.08500000000000001 0 0  0.08599999999999999 0 0  0.08700000000000001 0 0  0.08800000000000001 0 0  0.08900000000000001 0 0  0.09 0 0  0.091 0 0  0.09200000000000001 0 0  0.09300000000000001 0 0  0.094 0 0  0.095 0 0  0.09600000000000002 0 0  0.09700000000000002 0 0  0.098 0 0  0.099 0 0  0.1 0 0  </DataArray>
</Points>
<Cells>
<DataArray  type="UInt32"  Name="connectivity"  format="ascii">0 1  1 2  2 3  3 4  4 5  5 6  6 7  7 8  8 9  9 10  10 11  11 12  12 13  13 14  14 15  15 16  16 17  17 18  18 19  19 20  20 21  21 22  22 23  23 24  24 25  25 26  26 27  27 28  28 29  29 30  30 31  31 32  32 33  33 34  34 35  35 36  36 37  37 38  38 39  39 40  40 41  41 42  42 43  43 44  44 45  45 46  46 47  47 48  48 49  49 50  50 51  51 52  52 53  53 54  54 55  55 56  56 57  57 58  58 59  59 60  60 61  61 62  62 63  63 64  64 65  65 66  66 67  67 68  68 69  69 70  70 71  71 72  72 73  73 74  74 75  75 76  76 77  77 78  78 79  79 80  80 81  81 82  82 83  83 84  84 85  85 86  86 87  87 88  88 89  89 90  90 91  91 92  92 93  93 94  94 95  95 96  96 97  97 98  98 99  99 100  </DataArray>
<DataArray  type="UInt32"  Name="offsets"  format="ascii">2 4 6 8 10 12 14 16 18 20 22 24 26 28 30 32 34 36 38 40 42 44 46 48 50 52 54 56 58 60 62 64 66 68 70 72 74 76 78 80 82 84 86 88 90 92 94 96 98 100 102 104 106 108 110 112 114 116 118 120 122 124 126 128 130 132 134 136 138 140 142 144 146 148 150 152 154 156 158 160 162 164 166 168 170 172 174 176 178 180 182 184 186 188 190 192 194 196 198 200 </DataArray>
<DataArray  type="UInt8"  Name="types"  format="ascii">3 3 3 3 3 3 3 3 3 3 3 3 3 3 3 3 3 3 3 3 3 3 3 3 3 3 3 3 3 3 3 3 3 3 3 3 3 3 3 3 3 3 3 3 3 3 3 3 3 3 3 3 3 3 3 3 3 3 3 3 3 3 3 3 3 3 3 3 3 3 3 3 3 3 3 3 3 3 3 3 3 3 3 3 3 3 3 3 3 3 3 3 3 3 3 3 3 3 3 3 </DataArray>
</Cells>
<PointData  Scalars="f_14"> 
<DataArray  type="Float64"  Name="f_14"  format="ascii">1.2731886007388241e-03  1.2824807487763752e-03  1.3104510431303452e-03  1.3573814707478944e-03  1.4237434617521208e-03  1.5102000595439522e-03  1.6176089434560815e-03  1.7470262883339488e-03  1.8997114407631015e-03  2.0771323868688401e-03  2.2809719816588195e-03  2.5131349047416269e-03  2.7757553019185075e-03  3.0712050666002427e-03  3.4021027092413854e-03  3.7713227570102545e-03  4.1820056197325178e-03  4.6375678517730666e-03  5.1417127329766452e-03  5.6984410851014305e-03  6.3120622333881901e-03  6.9872050160556297e-03  7.7288287376523135e-03  8.5422339553878918e-03  9.4330729808785960e-03  1.0407359973249942e-02  1.1471480493324721e-02  1.2632200382775354e-02  1.3896673826730465e-02  1.5272450453494494e-02  1.6767481320869297e-02  1.8390123635163430e-02  2.0149144046444478e-02  2.2053720362041455e-02  2.4113441519842179e-02  2.6338305663660452e-02  2.8738716164968273e-02  3.1325475438694114e-02  3.4109776405665031e-02  3.7103191460696849e-02  4.0317658813377948e-02  4.3765466078303325e-02  4.7459231002935434e-02  5.1411879234422586e-02  5.5636619041596308e-02  6.0146912924990421e-02  6.4956446066038911e-02  7.0079091586563988e-02  7.5528872611191650e-02  8.1319921148318902e-02  8.7466433829601287e-02  9.3982624573469384e-02  1.0088267426477067e-01  1.0818067757006601e-01  1.1589058703618751e-01  1.2402615464815500e-01  1.3260087105120402e-01  1.4162790267023298e-01  1.5112002698816193e-01  1.6108956627220170e-01  1.7154832006358878e-01  1.8250749677160943e-01  1.9397764473644566e-01  2.0596858314718958e-01  2.1848933322100492e-01  2.3154805006657947e-01  2.4515195566940962e-01  2.5930727344784765e-01  2.7401916483696936e-01  2.8929166836196435e-01  3.0512764166373818e-01  3.2152870693656821e-01  3.3849520023086194e-01  3.5602612506324249e-01  3.7411911076127174e-01  3.9277037595113184e-01  4.1197469757354460e-01  4.3172538578620290e-01  4.5201426508016884e-01  4.7283166190317877e-01  4.9416639904489290e-01  5.1600579699799387e-01  5.3833568246507446e-01  5.6114040413472932e-01  5.8440285580160345e-01  6.0810450685472350e-01  6.3222544010672799e-01  6.5674439688403086e-01  6.8163882924501729e-01  7.0688495914057192e-01  7.3245784427903426e-01  7.5833145040664152e-01  7.8447872966507914e-01  8.1087170464046188e-01  8.3748155767334420e-01  8.6427872495768265e-01  8.9123299491846386e-01  9.1831361032336489e-01  9.4548937355366769e-01  9.7272875443404516e-01  1.0000000000000000e+00  </DataArray> 
</PointData> 
</Piece>
</UnstructuredGrid>
</VTKFile>