<?xml version="1.0"?>
<VTKFile type="UnstructuredGrid"  version="0.1"  >
<UnstructuredGrid>
<Piece  NumberOfPoints="101" NumberOfCells="100">
<Points>
<DataArray  type="Float64"  NumberOfComponents="3"  format="ascii">0 0 0  0.001 0 0  0.002 0 0  0.003 0 0  0.004 0 0  0.005 0 0  0.006000000000000001 0 0  0.007000000000000001 0 0  0.008 0 0  0.009000000000000001 0 0  0.01 0 0  0.011 0 0  0.012 0 0  0.013 0 0  0.014 0 0  0.015 0 0  0.016 0 0  0.017 0 0  0.018 0 0  0.019 0 0  0.02 0 0  0.021 0 0  0.022 0 0  0.023 0 0  0.024 0 0  0.025 0 0  0.026 0 0  0.027 0 0  0.028 0 0  0.029 0 0  0.03 0 0  0.031 0 0  0.032 0 0  0.033 0 0  0.034 0 0  0.035 0 0  0.036 0 0  0.03700000000000001 0 0  0.03800000000000001 0 0  0.03900000000000001 0 0  0.04 0 0  0.04100000000000001 0 0  0.042 0 0  0.043 0 0  0.044 0 0  0.045 0 0  0.04600000000000001 0 0  0.047 0 0  0.04800000000000001 0 0  0.049 0 0  0.05 0 0  0.051 0 0  0.052 0 0  0.05300000000000001 0 0  0.05400000000000001 0 0  0.055 0 0  0.05600000000000001 0 0  0.057 0 0  0.05800000000000001 0 0  0.059 0 0  0.06 0 0  0.06100000000000001 0 0  0.062 0 0  0.063 0 0  0.064 0 0  0.065 0 0  0.066 0 0  0.067 0 0  0.068 0 0  0.06900000000000001 0 0  0.07000000000000001 0 0  0.07100000000000001 0 0  0.07200000000000001 0 0  0.07300000000000001 0 0  0.07400000000000001 0 0  0.075 0 0  0.07600000000000001 0 0  0.077 0 0  0.07800000000000001 0 0  0.079 0 0  0.08 0 0  0.081 0 0  0.08200000000000002 0 0  0.083 0 0  0.08400000000000001 0 0  0.08500000000000001 0 0  0.08599999999999999 0 0  0.08700000000000001 0 0  0.08800000000000001 0 0  0.08900000000000001 0 0  0.09 0 0  0.091 0 0  0.09200000000000001 0 0  0.09300000000000001 0 0  0.094 0 0  0.095 0 0  0.09600000000000002 0 0  0.09700000000000002 0 0  0.098 0 0  0.099 0 0  0.1 0 0  </DataArray>
</Points>
<Cells>
<DataArray  type="UInt32"  Name="connectivity"  format="ascii">0 1  1 2  2 3  3 4  4 5  5 6  6 7  7 8  8 9  9 10  10 11  11 12  12 13  13 14  14 15  15 16  16 17  17 18  18 19  19 20  20 21  21 22  22 23  23 24  24 25  25 26  26 27  27 28  28 29  29 30  30 31  31 32  32 33  33 34  34 35  35 36  36 37  37 38  38 39  39 40  40 41  41 42  42 43  43 44  44 45  45 46  46 47  47 48  48 49  49 50  50 51  51 52  52 53  53 54  54 55  55 56  56 57  57 58  58 59  59 60  60 61  61 62  62 63  63 64  64 65  65 66  66 67  67 68  68 69  69 70  70 71  71 72  72 73  73 74  74 75  75 76  76 77  77 78  78 79  79 80  80 81  81 82  82 83  83 84  84 85  85 86  86 87  87 88  88 89  89 90  90 91  91 92  92 93  93 94  94 95  95 96  96 97  97 98  98 99  99 100  </DataArray>
<DataArray  type="UInt32"  Name="offsets"  format="ascii">2 4 6 8 10 12 14 16 18 20 22 24 26 28 30 32 34 36 38 40 42 44 46 48 50 52 54 56 58 60 62 64 66 68 70 72 74 76 78 80 82 84 86 88 90 92 94 96 98 100 102 104 106 108 110 112 114 116 118 120 122 124 126 128 130 132 134 136 138 140 142 144 146 148 150 152 154 156 158 160 162 164 166 168 170 172 174 176 178 180 182 184 186 188 190 192 194 196 198 200 </DataArray>
<DataArray  type="UInt8"  Name="types"  format="ascii">3 3 3 3 3 3 3 3 3 3 3 3 3 3 3 3 3 3 3 3 3 3 3 3 3 3 3 3 3 3 3 3 3 3 3 3 3 3 3 3 3 3 3 3 3 3 3 3 3 3 3 3 3 3 3 3 3 3 3 3 3 3 3 3 3 3 3 3 3 3 3 3 3 3 3 3 3 3 3 3 3 3 3 3 3 3 3 3 3 3 3 3 3 3 3 3 3 3 3 3 </DataArray>
</Cells>
<PointData  Scalars="f_14"> 
<DataArray  type="Float64"  Name="f_14"  format="ascii">5.5499953076890629e-08  5.8178246007810840e-08  6.6440257348943770e-08  8.0983793249521251e-08  1.0302751707588519e-07  1.3439782297555439e-07  1.7765739338282306e-07  2.3628272048881325e-07  3.1490045321181313e-07  4.1959540249517088e-07  5.5830650015675338e-07  7.4133106949457867e-07  9.8196254786082080e-07  1.2972924302726600e-06  1.7092138159413027e-06  2.2456716820417790e-06  2.9422140338598680e-06  3.8439085450397450e-06  5.0077013645725847e-06  6.5053085833614973e-06  8.4267465678262131e-06  1.0884625108653589e-05  1.4019347199963171e-05  1.8005381319936037e-05  2.3058796338813334e-05  2.9446275577853339e-05  3.7495854943510226e-05  4.7609660222946305e-05  6.0278950186587006e-05  7.6101804595395716e-05  9.5803828887150964e-05  1.2026227936753557e-04  1.5053404310877154e-04  1.8788793419675028e-04  2.3384179097800552e-04  2.9020487582201096e-04  3.5912608768755495e-04  4.4314849630629595e-04  5.4527069272427902e-04  6.6901542177237919e-04  8.1850591516633613e-04  9.9855027672754123e-04  1.2147341810751506e-03  1.4735220316229101e-03  1.7823665806355748e-03  2.1498268416672139e-03  2.5856939216573290e-03  3.1011241657264020e-03  3.7087787425589785e-03  4.4229685034550244e-03  5.2598026260846538e-03  6.2373392083921713e-03  7.3757356140562117e-03  8.6973959949888380e-03  1.0227113036632653e-02  1.1992200597881518e-02  1.4022613560340198e-02  1.6351050873692978e-02  1.9013037498625741e-02  2.2046980720322535e-02  2.5494196148815765e-02  2.9398898652238891e-02  3.3808153499735621e-02  3.8771783135866857e-02  4.4342225279727483e-02  5.0574338449385296e-02  5.7525151562640361e-02  6.5253554962074828e-02  7.3819931055588678e-02  8.3285723748373536e-02  9.3712946959068580e-02  1.0516363374716356e-01  1.1769922891094645e-01  1.3137992932080661e-01  1.4626397770211594e-01  1.6240691704157309e-01  1.7986081422357444e-01  1.9867346286890106e-01  2.1888757660520392e-01  2.4053998510530206e-01  2.6366084614408941e-01  2.8827288760888653e-01  3.1439069381634061e-01  3.4202005061140084e-01  3.7115736352710033e-01  4.0178916275203386e-01  4.3389170777861857e-01  4.6743070339186282e-01  5.0236113711797192e-01  5.3862724640730619e-01  5.7616262170942811e-01  6.1489044925123493e-01  6.5472389480274984e-01  6.9556662706664441e-01  7.3731347662014535e-01  7.7985122363868542e-01  8.2305950500831482e-01  8.6681182895702946e-01  9.1097668306977009e-01  9.5541871955928337e-01  1.0000000000000000e+00  </DataArray> 
</PointData> 
</Piece>
</UnstructuredGrid>
</VTKFile>