<?xml version="1.0"?>
<VTKFile type="UnstructuredGrid"  version="0.1"  >
<UnstructuredGrid>
<Piece  NumberOfPoints="101" NumberOfCells="100">
<Points>
<DataArray  type="Float64"  NumberOfComponents="3"  format="ascii">0 0 0  0.001 0 0  0.002 0 0  0.003 0 0  0.004 0 0  0.005 0 0  0.006000000000000001 0 0  0.007000000000000001 0 0  0.008 0 0  0.009000000000000001 0 0  0.01 0 0  0.011 0 0  0.012 0 0  0.013 0 0  0.014 0 0  0.015 0 0  0.016 0 0  0.017 0 0  0.018 0 0  0.019 0 0  0.02 0 0  0.021 0 0  0.022 0 0  0.023 0 0  0.024 0 0  0.025 0 0  0.026 0 0  0.027 0 0  0.028 0 0  0.029 0 0  0.03 0 0  0.031 0 0  0.032 0 0  0.033 0 0  0.034 0 0  0.035 0 0  0.036 0 0  0.03700000000000001 0 0  0.03800000000000001 0 0  0.03900000000000001 0 0  0.04 0 0  0.04100000000000001 0 0  0.042 0 0  0.043 0 0  0.044 0 0  0.045 0 0  0.04600000000000001 0 0  0.047 0 0  0.04800000000000001 0 0  0.049 0 0  0.05 0 0  0.051 0 0  0.052 0 0  0.05300000000000001 0 0  0.05400000000000001 0 0  0.055 0 0  0.05600000000000001 0 0  0.057 0 0  0.05800000000000001 0 0  0.059 0 0  0.06 0 0  0.06100000000000001 0 0  0.062 0 0  0.063 0 0  0.064 0 0  0.065 0 0  0.066 0 0  0.067 0 0  0.068 0 0  0.06900000000000001 0 0  0.07000000000000001 0 0  0.07100000000000001 0 0  0.07200000000000001 0 0  0.07300000000000001 0 0  0.07400000000000001 0 0  0.075 0 0  0.07600000000000001 0 0  0.077 0 0  0.07800000000000001 0 0  0.079 0 0  0.08 0 0  0.081 0 0  0.08200000000000002 0 0  0.083 0 0  0.08400000000000001 0 0  0.08500000000000001 0 0  0.08599999999999999 0 0  0.08700000000000001 0 0  0.08800000000000001 0 0  0.08900000000000001 0 0  0.09 0 0  0.091 0 0  0.09200000000000001 0 0  0.09300000000000001 0 0  0.094 0 0  0.095 0 0  0.09600000000000002 0 0  0.09700000000000002 0 0  0.098 0 0  0.099 0 0  0.1 0 0  </DataArray>
</Points>
<Cells>
<DataArray  type="UInt32"  Name="connectivity"  format="ascii">0 1  1 2  2 3  3 4  4 5  5 6  6 7  7 8  8 9  9 10  10 11  11 12  12 13  13 14  14 15  15 16  16 17  17 18  18 19  19 20  20 21  21 22  22 23  23 24  24 25  25 26  26 27  27 28  28 29  29 30  30 31  31 32  32 33  33 34  34 35  35 36  36 37  37 38  38 39  39 40  40 41  41 42  42 43  43 44  44 45  45 46  46 47  47 48  48 49  49 50  50 51  51 52  52 53  53 54  54 55  55 56  56 57  57 58  58 59  59 60  60 61  61 62  62 63  63 64  64 65  65 66  66 67  67 68  68 69  69 70  70 71  71 72  72 73  73 74  74 75  75 76  76 77  77 78  78 79  79 80  80 81  81 82  82 83  83 84  84 85  85 86  86 87  87 88  88 89  89 90  90 91  91 92  92 93  93 94  94 95  95 96  96 97  97 98  98 99  99 100  </DataArray>
<DataArray  type="UInt32"  Name="offsets"  format="ascii">2 4 6 8 10 12 14 16 18 20 22 24 26 28 30 32 34 36 38 40 42 44 46 48 50 52 54 56 58 60 62 64 66 68 70 72 74 76 78 80 82 84 86 88 90 92 94 96 98 100 102 104 106 108 110 112 114 116 118 120 122 124 126 128 130 132 134 136 138 140 142 144 146 148 150 152 154 156 158 160 162 164 166 168 170 172 174 176 178 180 182 184 186 188 190 192 194 196 198 200 </DataArray>
<DataArray  type="UInt8"  Name="types"  format="ascii">3 3 3 3 3 3 3 3 3 3 3 3 3 3 3 3 3 3 3 3 3 3 3 3 3 3 3 3 3 3 3 3 3 3 3 3 3 3 3 3 3 3 3 3 3 3 3 3 3 3 3 3 3 3 3 3 3 3 3 3 3 3 3 3 3 3 3 3 3 3 3 3 3 3 3 3 3 3 3 3 3 3 3 3 3 3 3 3 3 3 3 3 3 3 3 3 3 3 3 3 </DataArray>
</Cells>
<PointData  Scalars="f_14"> 
<DataArray  type="Float64"  Name="f_14"  format="ascii">2.3570403341050336e-04  2.3844109045145602e-04  2.4670015425143284e-04  2.6062542304904296e-04  2.8045896214333877e-04  3.0654330926794111e-04  3.3932512798589399e-04  3.7935991457309891e-04  4.2731776484588007e-04  4.8399020794774540e-04  5.5029811414983114e-04  6.2730068314908679e-04  7.1620551808112783e-04  8.1837978841750461e-04  9.3536248201107604e-04  1.0688777427147276e-03  1.2208492851609536e-03  1.3934158723935481e-03  1.5889478350377849e-03  1.8100646025422846e-03  2.0596532076967915e-03  2.3408877151112960e-03  2.6572495126347268e-03  3.0125483918140351e-03  3.4109443294837267e-03  3.8569698674886833e-03  4.3555529714580845e-03  4.9120402325666451e-03  5.5322202584670447e-03  6.2223470812043363e-03  6.9891633911056145e-03  7.8399233865776470e-03  8.7824150106688807e-03  9.8249813264125636e-03  1.0976540764640410e-02  1.2246605960439987e-02  1.3645300878042242e-02  1.5183375909003762e-02  1.6872220615441937e-02  1.8723873779149400e-02  2.0751030409023069e-02  2.2967045353758618e-02  2.5385933164543358e-02  2.8022363853881814e-02  3.0891654202036097e-02  3.4009754272170914e-02  3.7393228809433118e-02  4.1059233218105617e-02  4.5025483834852574e-02  4.9310222245046616e-02  5.3932173423332355e-02  5.8910497518932736e-02  6.4264735150703786e-02  7.0014746126442429e-02  7.6180641555245343e-02  8.2782709380502625e-02  8.9841333424007921e-02  9.7376906098200752e-02  1.0540973501318729e-01  1.1395994377725242e-01  1.2304736736339167e-01  1.3269144248913708e-01  1.4291109353179718e-01  1.5372461457524797e-01  1.6514954825664213e-01  1.7720256215086430e-01  1.8989932349621308e-01  2.0325437312562936e-01  2.1728099952278476e-01  2.3199111397050384e-01  2.4739512779936323e-01  2.6350183277598771e-01  2.8031828569272932e-01  2.9784969823232282e-01  3.1609933318214206e-01  3.3506840806231070e-01  3.5475600720978495e-01  3.7515900332636598e-01  3.9627198945238262e-01  4.1808722226951572e-01  4.4059457756626746e-01  4.6378151861821576e-01  4.8763307814313134e-01  5.1213185438894493e-01  5.3725802180140370e-01  5.6298935659908611e-01  5.8930127745748562e-01  6.1616690137243557e-01  6.4355711463768939e-01  6.7144065873354464e-01  6.9978423078455287e-01  7.2855259810631967e-01  7.5770872622577656e-01  7.8721391962782350e-01  8.1702797435550878e-01  8.4710934147254591e-01  8.7741530028747949e-01  9.0790214013962922e-01  9.3852534945934230e-01  9.6923981074023668e-01  1.0000000000000000e+00  </DataArray> 
</PointData> 
</Piece>
</UnstructuredGrid>
</VTKFile>