<?xml version="1.0"?>
<VTKFile type="UnstructuredGrid"  version="0.1"  >
<UnstructuredGrid>
<Piece  NumberOfPoints="101" NumberOfCells="100">
<Points>
<DataArray  type="Float64"  NumberOfComponents="3"  format="ascii">0 0 0  0.001 0 0  0.002 0 0  0.003 0 0  0.004 0 0  0.005 0 0  0.006000000000000001 0 0  0.007000000000000001 0 0  0.008 0 0  0.009000000000000001 0 0  0.01 0 0  0.011 0 0  0.012 0 0  0.013 0 0  0.014 0 0  0.015 0 0  0.016 0 0  0.017 0 0  0.018 0 0  0.019 0 0  0.02 0 0  0.021 0 0  0.022 0 0  0.023 0 0  0.024 0 0  0.025 0 0  0.026 0 0  0.027 0 0  0.028 0 0  0.029 0 0  0.03 0 0  0.031 0 0  0.032 0 0  0.033 0 0  0.034 0 0  0.035 0 0  0.036 0 0  0.03700000000000001 0 0  0.03800000000000001 0 0  0.03900000000000001 0 0  0.04 0 0  0.04100000000000001 0 0  0.042 0 0  0.043 0 0  0.044 0 0  0.045 0 0  0.04600000000000001 0 0  0.047 0 0  0.04800000000000001 0 0  0.049 0 0  0.05 0 0  0.051 0 0  0.052 0 0  0.05300000000000001 0 0  0.05400000000000001 0 0  0.055 0 0  0.05600000000000001 0 0  0.057 0 0  0.05800000000000001 0 0  0.059 0 0  0.06 0 0  0.06100000000000001 0 0  0.062 0 0  0.063 0 0  0.064 0 0  0.065 0 0  0.066 0 0  0.067 0 0  0.068 0 0  0.06900000000000001 0 0  0.07000000000000001 0 0  0.07100000000000001 0 0  0.07200000000000001 0 0  0.07300000000000001 0 0  0.07400000000000001 0 0  0.075 0 0  0.07600000000000001 0 0  0.077 0 0  0.07800000000000001 0 0  0.079 0 0  0.08 0 0  0.081 0 0  0.08200000000000002 0 0  0.083 0 0  0.08400000000000001 0 0  0.08500000000000001 0 0  0.08599999999999999 0 0  0.08700000000000001 0 0  0.08800000000000001 0 0  0.08900000000000001 0 0  0.09 0 0  0.091 0 0  0.09200000000000001 0 0  0.09300000000000001 0 0  0.094 0 0  0.095 0 0  0.09600000000000002 0 0  0.09700000000000002 0 0  0.098 0 0  0.099 0 0  0.1 0 0  </DataArray>
</Points>
<Cells>
<DataArray  type="UInt32"  Name="connectivity"  format="ascii">0 1  1 2  2 3  3 4  4 5  5 6  6 7  7 8  8 9  9 10  10 11  11 12  12 13  13 14  14 15  15 16  16 17  17 18  18 19  19 20  20 21  21 22  22 23  23 24  24 25  25 26  26 27  27 28  28 29  29 30  30 31  31 32  32 33  33 34  34 35  35 36  36 37  37 38  38 39  39 40  40 41  41 42  42 43  43 44  44 45  45 46  46 47  47 48  48 49  49 50  50 51  51 52  52 53  53 54  54 55  55 56  56 57  57 58  58 59  59 60  60 61  61 62  62 63  63 64  64 65  65 66  66 67  67 68  68 69  69 70  70 71  71 72  72 73  73 74  74 75  75 76  76 77  77 78  78 79  79 80  80 81  81 82  82 83  83 84  84 85  85 86  86 87  87 88  88 89  89 90  90 91  91 92  92 93  93 94  94 95  95 96  96 97  97 98  98 99  99 100  </DataArray>
<DataArray  type="UInt32"  Name="offsets"  format="ascii">2 4 6 8 10 12 14 16 18 20 22 24 26 28 30 32 34 36 38 40 42 44 46 48 50 52 54 56 58 60 62 64 66 68 70 72 74 76 78 80 82 84 86 88 90 92 94 96 98 100 102 104 106 108 110 112 114 116 118 120 122 124 126 128 130 132 134 136 138 140 142 144 146 148 150 152 154 156 158 160 162 164 166 168 170 172 174 176 178 180 182 184 186 188 190 192 194 196 198 200 </DataArray>
<DataArray  type="UInt8"  Name="types"  format="ascii">3 3 3 3 3 3 3 3 3 3 3 3 3 3 3 3 3 3 3 3 3 3 3 3 3 3 3 3 3 3 3 3 3 3 3 3 3 3 3 3 3 3 3 3 3 3 3 3 3 3 3 3 3 3 3 3 3 3 3 3 3 3 3 3 3 3 3 3 3 3 3 3 3 3 3 3 3 3 3 3 3 3 3 3 3 3 3 3 3 3 3 3 3 3 3 3 3 3 3 3 </DataArray>
</Cells>
<PointData  Scalars="f_14"> 
<DataArray  type="Float64"  Name="f_14"  format="ascii">1.9371811203227592e-05  1.9757669641724810e-05  2.0927703322956937e-05  2.2919584611841174e-05  2.5797095732545782e-05  2.9651635381218147e-05  3.4604356321739248e-05  4.0808962205900981e-05  4.8455199779872369e-05  5.7773090429507731e-05  6.9037952628915486e-05  8.2576274228947659e-05  9.8772500580545313e-05  1.1807681114269237e-04  1.4101396337010529e-04  1.6819328818816343e-04  2.0031992610012515e-04  2.3820739677390918e-04  2.8279159764371317e-04  3.3514632843870975e-04  3.9650043840366254e-04  4.6825669107648798e-04  5.5201243759540940e-04  6.4958218337452314e-04  7.6302212435780360e-04  8.9465671768467381e-04  1.0471073372282551e-03  1.2233230468660222e-03  1.4266135032977832e-03  1.6606839755518505e-03  1.9296724398683602e-03  2.2381886763165964e-03  2.5913552572446792e-03  2.9948502774950030e-03  3.4549516323427168e-03  3.9785826015085084e-03  4.5733584466362892e-03  5.2476336756888519e-03  6.0105495712877008e-03  6.8720815217089169e-03  7.8430856337657028e-03  8.9353440470000076e-03  1.0161608309427982e-02  1.1535640117609693e-02  1.3072248669218743e-02  1.4787323825847945e-02  1.6697864238855657e-02  1.8821999553050438e-02  2.1179005773390294e-02  2.3789312860104921e-02  2.6674503609202108e-02  2.9857302879599902e-02  3.3361556246477388e-02  3.7212197194071650e-02  4.1435202011136943e-02  4.6057531619494642e-02  5.1107059651184075e-02  5.6612486193048171e-02  6.2603236739234069e-02  6.9109346031789115e-02  7.6161326626686676e-02  8.3790022196206987e-02  9.2026445767258019e-02  1.0090160329714272e-01  1.1044630320128096e-01  1.2069095266890752e-01  1.3166534182983633e-01  1.4339841706474443e-01  1.5591804497950310e-01  1.6925076878706125e-01  1.8342155905426083e-01  1.9845356097162448e-01  2.1436784048743915e-01  2.3118313180925729e-01  2.4891558891225607e-01  2.6757854380096402e-01  2.8718227434522586e-01  3.0773378454984340e-01  3.2923660011754990e-01  3.5169058212475057e-01  3.7509176154748192e-01  3.9943219725049439e-01  4.2469985988535974e-01  4.5087854393477672e-01  4.7794780989143004e-01  5.0588295827317598e-01  5.3465503685520410e-01  5.6423088214797468e-01  5.9457319577179779e-01  6.2564065598012530e-01  6.5738806416961815e-01  6.8976652579217534e-01  7.2272366465872906e-01  7.5620386920356175e-01  7.9014856886792240e-01  8.2449653836958092e-01  8.5918422725722243e-01  8.9414611181147652e-01  9.2931506605366543e-01  9.6462274836425255e-01  1.0000000000000000e+00  </DataArray> 
</PointData> 
</Piece>
</UnstructuredGrid>
</VTKFile>