<?xml version="1.0"?>
<VTKFile type="UnstructuredGrid"  version="0.1"  >
<UnstructuredGrid>
<Piece  NumberOfPoints="101" NumberOfCells="100">
<Points>
<DataArray  type="Float64"  NumberOfComponents="3"  format="ascii">0 0 0  0.001 0 0  0.002 0 0  0.003 0 0  0.004 0 0  0.005 0 0  0.006000000000000001 0 0  0.007000000000000001 0 0  0.008 0 0  0.009000000000000001 0 0  0.01 0 0  0.011 0 0  0.012 0 0  0.013 0 0  0.014 0 0  0.015 0 0  0.016 0 0  0.017 0 0  0.018 0 0  0.019 0 0  0.02 0 0  0.021 0 0  0.022 0 0  0.023 0 0  0.024 0 0  0.025 0 0  0.026 0 0  0.027 0 0  0.028 0 0  0.029 0 0  0.03 0 0  0.031 0 0  0.032 0 0  0.033 0 0  0.034 0 0  0.035 0 0  0.036 0 0  0.03700000000000001 0 0  0.03800000000000001 0 0  0.03900000000000001 0 0  0.04 0 0  0.04100000000000001 0 0  0.042 0 0  0.043 0 0  0.044 0 0  0.045 0 0  0.04600000000000001 0 0  0.047 0 0  0.04800000000000001 0 0  0.049 0 0  0.05 0 0  0.051 0 0  0.052 0 0  0.05300000000000001 0 0  0.05400000000000001 0 0  0.055 0 0  0.05600000000000001 0 0  0.057 0 0  0.05800000000000001 0 0  0.059 0 0  0.06 0 0  0.06100000000000001 0 0  0.062 0 0  0.063 0 0  0.064 0 0  0.065 0 0  0.066 0 0  0.067 0 0  0.068 0 0  0.06900000000000001 0 0  0.07000000000000001 0 0  0.07100000000000001 0 0  0.07200000000000001 0 0  0.07300000000000001 0 0  0.07400000000000001 0 0  0.075 0 0  0.07600000000000001 0 0  0.077 0 0  0.07800000000000001 0 0  0.079 0 0  0.08 0 0  0.081 0 0  0.08200000000000002 0 0  0.083 0 0  0.08400000000000001 0 0  0.08500000000000001 0 0  0.08599999999999999 0 0  0.08700000000000001 0 0  0.08800000000000001 0 0  0.08900000000000001 0 0  0.09 0 0  0.091 0 0  0.09200000000000001 0 0  0.09300000000000001 0 0  0.094 0 0  0.095 0 0  0.09600000000000002 0 0  0.09700000000000002 0 0  0.098 0 0  0.099 0 0  0.1 0 0  </DataArray>
</Points>
<Cells>
<DataArray  type="UInt32"  Name="connectivity"  format="ascii">0 1  1 2  2 3  3 4  4 5  5 6  6 7  7 8  8 9  9 10  10 11  11 12  12 13  13 14  14 15  15 16  16 17  17 18  18 19  19 20  20 21  21 22  22 23  23 24  24 25  25 26  26 27  27 28  28 29  29 30  30 31  31 32  32 33  33 34  34 35  35 36  36 37  37 38  38 39  39 40  40 41  41 42  42 43  43 44  44 45  45 46  46 47  47 48  48 49  49 50  50 51  51 52  52 53  53 54  54 55  55 56  56 57  57 58  58 59  59 60  60 61  61 62  62 63  63 64  64 65  65 66  66 67  67 68  68 69  69 70  70 71  71 72  72 73  73 74  74 75  75 76  76 77  77 78  78 79  79 80  80 81  81 82  82 83  83 84  84 85  85 86  86 87  87 88  88 89  89 90  90 91  91 92  92 93  93 94  94 95  95 96  96 97  97 98  98 99  99 100  </DataArray>
<DataArray  type="UInt32"  Name="offsets"  format="ascii">2 4 6 8 10 12 14 16 18 20 22 24 26 28 30 32 34 36 38 40 42 44 46 48 50 52 54 56 58 60 62 64 66 68 70 72 74 76 78 80 82 84 86 88 90 92 94 96 98 100 102 104 106 108 110 112 114 116 118 120 122 124 126 128 130 132 134 136 138 140 142 144 146 148 150 152 154 156 158 160 162 164 166 168 170 172 174 176 178 180 182 184 186 188 190 192 194 196 198 200 </DataArray>
<DataArray  type="UInt8"  Name="types"  format="ascii">3 3 3 3 3 3 3 3 3 3 3 3 3 3 3 3 3 3 3 3 3 3 3 3 3 3 3 3 3 3 3 3 3 3 3 3 3 3 3 3 3 3 3 3 3 3 3 3 3 3 3 3 3 3 3 3 3 3 3 3 3 3 3 3 3 3 3 3 3 3 3 3 3 3 3 3 3 3 3 3 3 3 3 3 3 3 3 3 3 3 3 3 3 3 3 3 3 3 3 3 </DataArray>
</Cells>
<PointData  Scalars="f_14"> 
<DataArray  type="Float64"  Name="f_14"  format="ascii">4.2967003810486673e-05  4.3698391323784460e-05  4.5912355749540635e-05  4.9668683340775979e-05  5.5068290088965898e-05  6.2255142594514002e-05  7.1418972202163825e-05  8.2798807047170577e-05  9.6687353305322313e-05  1.1343626327868523e-04  1.3346233389698224e-04  1.5725468468181286e-04  1.8538296910889160e-04  2.1850667750421257e-04  2.5738559300595467e-04  3.0289146458766533e-04  3.5602096253299723e-04  4.1790998193240572e-04  4.8984935858451234e-04  5.7330205896995276e-04  6.6992190156011158e-04  7.8157386046241836e-04  9.1035599412466329e-04  1.0586230313652011e-03  1.2290116342153110e-03  1.4244673418197325e-03  1.6482731818257131e-03  1.9040799152083658e-03  2.1959378572693512e-03  2.5283301915814313e-03  2.9062076649498956e-03  3.3350245200879222e-03  3.8207754887750940e-03  4.3700336319648240e-03  4.9899887748697863e-03  5.6884862447963624e-03  6.4740655778037356e-03  7.3559988175893399e-03  8.3443279868853637e-03  9.4499012687013322e-03  1.0684407392650440e-02  1.2060407681106763e-02  1.3591365171875364e-02  1.5291670199294210e-02  1.7176661785145205e-02  1.9262644165390700e-02  2.1566897759545869e-02  2.4107683877425803e-02  2.6904242454038284e-02  2.9976782108453694e-02  3.3346461837455293e-02  3.7035363680443849e-02  4.1066455729144052e-02  4.5463544904697825e-02  5.0251218986157656e-02  5.5454777448458725e-02  6.1100150754710203e-02  6.7213807846948359e-02  7.3822651690961499e-02  8.0953902853794446e-02  8.8634971226216774e-02  9.6893316145640632e-02  1.0575629532634460e-01  1.1525100316174956e-01  1.2540409912603262e-01  1.3624162716747437e-01  1.4778882715129957e-01  1.6006993957294563e-01  1.7310800492106249e-01  1.8692465922041737e-01  2.0153992742549001e-01  2.1697201646314027e-01  2.3323710983459148e-01  2.5034916578048372e-01  2.6831972108544883e-01  2.8715770264828289e-01  3.0686924896835749e-01  3.2745754369672214e-01  3.4892266337012390e-01  3.7126144138692818e-01  3.9446735019528978e-01  4.1853040354577231e-01  4.4343708051356612e-01  4.6917027282038110e-01  4.9570925678459116e-01  5.2302969100218577e-01  5.5110364061311112e-01  5.7989962874049317e-01  6.0938271540742306e-01  6.3951460394116388e-01  6.7025377457172441e-01  7.0155564462512154e-01  7.3337275440560779e-01  7.6565497756026879e-01  7.9834975442816969e-01  8.3140234659910917e-01  8.6475611064831936e-01  8.9835278877719249e-01  9.3213281388003610e-01  9.6603562637634321e-01  1.0000000000000000e+00  </DataArray> 
</PointData> 
</Piece>
</UnstructuredGrid>
</VTKFile>