<?xml version="1.0"?>
<VTKFile type="UnstructuredGrid"  version="0.1"  >
<UnstructuredGrid>
<Piece  NumberOfPoints="101" NumberOfCells="100">
<Points>
<DataArray  type="Float64"  NumberOfComponents="3"  format="ascii">0 0 0  0.001 0 0  0.002 0 0  0.003 0 0  0.004 0 0  0.005 0 0  0.006000000000000001 0 0  0.007000000000000001 0 0  0.008 0 0  0.009000000000000001 0 0  0.01 0 0  0.011 0 0  0.012 0 0  0.013 0 0  0.014 0 0  0.015 0 0  0.016 0 0  0.017 0 0  0.018 0 0  0.019 0 0  0.02 0 0  0.021 0 0  0.022 0 0  0.023 0 0  0.024 0 0  0.025 0 0  0.026 0 0  0.027 0 0  0.028 0 0  0.029 0 0  0.03 0 0  0.031 0 0  0.032 0 0  0.033 0 0  0.034 0 0  0.035 0 0  0.036 0 0  0.03700000000000001 0 0  0.03800000000000001 0 0  0.03900000000000001 0 0  0.04 0 0  0.04100000000000001 0 0  0.042 0 0  0.043 0 0  0.044 0 0  0.045 0 0  0.04600000000000001 0 0  0.047 0 0  0.04800000000000001 0 0  0.049 0 0  0.05 0 0  0.051 0 0  0.052 0 0  0.05300000000000001 0 0  0.05400000000000001 0 0  0.055 0 0  0.05600000000000001 0 0  0.057 0 0  0.05800000000000001 0 0  0.059 0 0  0.06 0 0  0.06100000000000001 0 0  0.062 0 0  0.063 0 0  0.064 0 0  0.065 0 0  0.066 0 0  0.067 0 0  0.068 0 0  0.06900000000000001 0 0  0.07000000000000001 0 0  0.07100000000000001 0 0  0.07200000000000001 0 0  0.07300000000000001 0 0  0.07400000000000001 0 0  0.075 0 0  0.07600000000000001 0 0  0.077 0 0  0.07800000000000001 0 0  0.079 0 0  0.08 0 0  0.081 0 0  0.08200000000000002 0 0  0.083 0 0  0.08400000000000001 0 0  0.08500000000000001 0 0  0.08599999999999999 0 0  0.08700000000000001 0 0  0.08800000000000001 0 0  0.08900000000000001 0 0  0.09 0 0  0.091 0 0  0.09200000000000001 0 0  0.09300000000000001 0 0  0.094 0 0  0.095 0 0  0.09600000000000002 0 0  0.09700000000000002 0 0  0.098 0 0  0.099 0 0  0.1 0 0  </DataArray>
</Points>
<Cells>
<DataArray  type="UInt32"  Name="connectivity"  format="ascii">0 1  1 2  2 3  3 4  4 5  5 6  6 7  7 8  8 9  9 10  10 11  11 12  12 13  13 14  14 15  15 16  16 17  17 18  18 19  19 20  20 21  21 22  22 23  23 24  24 25  25 26  26 27  27 28  28 29  29 30  30 31  31 32  32 33  33 34  34 35  35 36  36 37  37 38  38 39  39 40  40 41  41 42  42 43  43 44  44 45  45 46  46 47  47 48  48 49  49 50  50 51  51 52  52 53  53 54  54 55  55 56  56 57  57 58  58 59  59 60  60 61  61 62  62 63  63 64  64 65  65 66  66 67  67 68  68 69  69 70  70 71  71 72  72 73  73 74  74 75  75 76  76 77  77 78  78 79  79 80  80 81  81 82  82 83  83 84  84 85  85 86  86 87  87 88  88 89  89 90  90 91  91 92  92 93  93 94  94 95  95 96  96 97  97 98  98 99  99 100  </DataArray>
<DataArray  type="UInt32"  Name="offsets"  format="ascii">2 4 6 8 10 12 14 16 18 20 22 24 26 28 30 32 34 36 38 40 42 44 46 48 50 52 54 56 58 60 62 64 66 68 70 72 74 76 78 80 82 84 86 88 90 92 94 96 98 100 102 104 106 108 110 112 114 116 118 120 122 124 126 128 130 132 134 136 138 140 142 144 146 148 150 152 154 156 158 160 162 164 166 168 170 172 174 176 178 180 182 184 186 188 190 192 194 196 198 200 </DataArray>
<DataArray  type="UInt8"  Name="types"  format="ascii">3 3 3 3 3 3 3 3 3 3 3 3 3 3 3 3 3 3 3 3 3 3 3 3 3 3 3 3 3 3 3 3 3 3 3 3 3 3 3 3 3 3 3 3 3 3 3 3 3 3 3 3 3 3 3 3 3 3 3 3 3 3 3 3 3 3 3 3 3 3 3 3 3 3 3 3 3 3 3 3 3 3 3 3 3 3 3 3 3 3 3 3 3 3 3 3 3 3 3 3 </DataArray>
</Cells>
<PointData  Scalars="f_14"> 
<DataArray  type="Float64"  Name="f_14"  format="ascii">1.0413914495334414e-05  1.0646520684392652e-05  1.1352869399627095e-05  1.2558788223190625e-05  1.4308117673048876e-05  1.6663917338714335e-05  1.9710183123114775e-05  2.3554104292747898e-05  2.8328897299110062e-05  3.4197261620024308e-05  4.1355511162875421e-05  5.0038443042394083e-05  6.0525013747266327e-05  7.3144900778247026e-05  8.8286035691325127e-05  1.0640320200654782e-04  1.2802779851645889e-04  1.5377887499284953e-04  1.8437555296584287e-04  2.2065094892798135e-04  2.6356772076438858e-04  3.1423536016906423e-04  3.7392935399370821e-04  4.4411233558425150e-04  5.2645734286820424e-04  6.2287329292580495e-04  7.3553277266406056e-04  8.6690223166759007e-04  1.0197746459823644e-03  1.1973047001716266e-03  1.4030465091667040e-03  1.6409938709549090e-03  1.9156230057871893e-03  2.2319376971968968e-03  2.5955167046208334e-03  3.0125632668179226e-03  3.4899564597063028e-03  4.0353041119213636e-03  4.6569969167005627e-03  5.3642633101335579e-03  6.1672246140379991e-03  7.0769498675518749e-03  8.1055096959560969e-03  9.2660284894066202e-03  1.0572734089475268e-02  1.2041004109143985e-02  1.3687407943781352e-02  1.5529743468395245e-02  1.7587067361952657e-02  1.9879717954709941e-02  2.2429329461283707e-02  2.5258836442588892e-02  2.8392467335730264e-02  3.1855725904315353e-02  3.5675359494198054e-02  3.9879313032907815e-02  4.4496667786277797e-02  4.9557563984067743e-02  5.5093106548351957e-02  6.1135253304366331e-02  6.7716685223213974e-02  7.4870658438633275e-02  8.2630837994768988e-02  9.1031113516817169e-02  1.0010539724926162e-01  1.0988740517435797e-01  1.2041042220316205e-01  1.3170705271886687e-01  1.4380895804313898e-01  1.5674658268575581e-01  1.7054887152102255e-01  1.8524298030580402e-01  2.0085398220800688e-01  2.1740457324538526e-01  2.3491477973708824e-01  2.5340167103906919e-01  2.7287908096430030e-01  2.9335734137507885e-01  3.1484303147358322e-01  3.3733874630482852e-01  3.6084288792085129e-01  3.8534948253455176e-01  4.1084802681559729e-01  4.3732336624941731e-01  4.6475560819512812e-01  4.9312007194171287e-01  5.2238727767765736e-01  5.5252297586215582e-01  5.8348821802169215e-01  6.1523946950091257e-01  6.4772876417859537e-01  6.8090390062637773e-01  7.1470867864827459e-01  7.4908317460193741e-01  7.8396405337717334e-01  8.1928491440262008e-01  8.5497666857656218e-01  8.9096794258121925e-01  9.2718550664931554e-01  9.6355472151455568e-01  1.0000000000000000e+00  </DataArray> 
</PointData> 
</Piece>
</UnstructuredGrid>
</VTKFile>