<?xml version="1.0"?>
<VTKFile type="UnstructuredGrid"  version="0.1"  >
<UnstructuredGrid>
<Piece  NumberOfPoints="101" NumberOfCells="100">
<Points>
<DataArray  type="Float64"  NumberOfComponents="3"  format="ascii">0 0 0  0.001 0 0  0.002 0 0  0.003 0 0  0.004 0 0  0.005 0 0  0.006000000000000001 0 0  0.007000000000000001 0 0  0.008 0 0  0.009000000000000001 0 0  0.01 0 0  0.011 0 0  0.012 0 0  0.013 0 0  0.014 0 0  0.015 0 0  0.016 0 0  0.017 0 0  0.018 0 0  0.019 0 0  0.02 0 0  0.021 0 0  0.022 0 0  0.023 0 0  0.024 0 0  0.025 0 0  0.026 0 0  0.027 0 0  0.028 0 0  0.029 0 0  0.03 0 0  0.031 0 0  0.032 0 0  0.033 0 0  0.034 0 0  0.035 0 0  0.036 0 0  0.03700000000000001 0 0  0.03800000000000001 0 0  0.03900000000000001 0 0  0.04 0 0  0.04100000000000001 0 0  0.042 0 0  0.043 0 0  0.044 0 0  0.045 0 0  0.04600000000000001 0 0  0.047 0 0  0.04800000000000001 0 0  0.049 0 0  0.05 0 0  0.051 0 0  0.052 0 0  0.05300000000000001 0 0  0.05400000000000001 0 0  0.055 0 0  0.05600000000000001 0 0  0.057 0 0  0.05800000000000001 0 0  0.059 0 0  0.06 0 0  0.06100000000000001 0 0  0.062 0 0  0.063 0 0  0.064 0 0  0.065 0 0  0.066 0 0  0.067 0 0  0.068 0 0  0.06900000000000001 0 0  0.07000000000000001 0 0  0.07100000000000001 0 0  0.07200000000000001 0 0  0.07300000000000001 0 0  0.07400000000000001 0 0  0.075 0 0  0.07600000000000001 0 0  0.077 0 0  0.07800000000000001 0 0  0.079 0 0  0.08 0 0  0.081 0 0  0.08200000000000002 0 0  0.083 0 0  0.08400000000000001 0 0  0.08500000000000001 0 0  0.08599999999999999 0 0  0.08700000000000001 0 0  0.08800000000000001 0 0  0.08900000000000001 0 0  0.09 0 0  0.091 0 0  0.09200000000000001 0 0  0.09300000000000001 0 0  0.094 0 0  0.095 0 0  0.09600000000000002 0 0  0.09700000000000002 0 0  0.098 0 0  0.099 0 0  0.1 0 0  </DataArray>
</Points>
<Cells>
<DataArray  type="UInt32"  Name="connectivity"  format="ascii">0 1  1 2  2 3  3 4  4 5  5 6  6 7  7 8  8 9  9 10  10 11  11 12  12 13  13 14  14 15  15 16  16 17  17 18  18 19  19 20  20 21  21 22  22 23  23 24  24 25  25 26  26 27  27 28  28 29  29 30  30 31  31 32  32 33  33 34  34 35  35 36  36 37  37 38  38 39  39 40  40 41  41 42  42 43  43 44  44 45  45 46  46 47  47 48  48 49  49 50  50 51  51 52  52 53  53 54  54 55  55 56  56 57  57 58  58 59  59 60  60 61  61 62  62 63  63 64  64 65  65 66  66 67  67 68  68 69  69 70  70 71  71 72  72 73  73 74  74 75  75 76  76 77  77 78  78 79  79 80  80 81  81 82  82 83  83 84  84 85  85 86  86 87  87 88  88 89  89 90  90 91  91 92  92 93  93 94  94 95  95 96  96 97  97 98  98 99  99 100  </DataArray>
<DataArray  type="UInt32"  Name="offsets"  format="ascii">2 4 6 8 10 12 14 16 18 20 22 24 26 28 30 32 34 36 38 40 42 44 46 48 50 52 54 56 58 60 62 64 66 68 70 72 74 76 78 80 82 84 86 88 90 92 94 96 98 100 102 104 106 108 110 112 114 116 118 120 122 124 126 128 130 132 134 136 138 140 142 144 146 148 150 152 154 156 158 160 162 164 166 168 170 172 174 176 178 180 182 184 186 188 190 192 194 196 198 200 </DataArray>
<DataArray  type="UInt8"  Name="types"  format="ascii">3 3 3 3 3 3 3 3 3 3 3 3 3 3 3 3 3 3 3 3 3 3 3 3 3 3 3 3 3 3 3 3 3 3 3 3 3 3 3 3 3 3 3 3 3 3 3 3 3 3 3 3 3 3 3 3 3 3 3 3 3 3 3 3 3 3 3 3 3 3 3 3 3 3 3 3 3 3 3 3 3 3 3 3 3 3 3 3 3 3 3 3 3 3 3 3 3 3 3 3 </DataArray>
</Cells>
<PointData  Scalars="f_14"> 
<DataArray  type="Float64"  Name="f_14"  format="ascii">9.1230262513003070e-11  9.9711282113777001e-11  1.2659627981644170e-10  1.7643206561985919e-10  2.5756321819620220e-10  3.8339010767690991e-10  5.7435929751438177e-10  8.6094660376278067e-10  1.2880151090468396e-09  1.9210940403696863e-09  2.8553458369948265e-09  4.2282890184815783e-09  6.2377510358717322e-09  9.1670737842198629e-09  1.3420330971376527e-08  1.9571300369555836e-08  2.8431240877465702e-08  4.1142250373404951e-08  5.9305246462253083e-08  8.5154569342750369e-08  1.2179504091750357e-07  1.7352225596396620e-07  2.4625320782982215e-07  3.4810239707408591e-07  4.9014873429514211e-07  6.8745129517103164e-07  9.6038785824557936e-07  1.3364097736367850e-06  1.8523307704944835e-06  2.5572965823654555e-06  3.5166175844440657e-06  4.8166888705349323e-06  6.5712722416488447e-06  8.9294732996760005e-06  1.2085815028287414e-05  1.6292887542517819e-05  2.1877142509467488e-05  2.9258500160002905e-05  3.8974546441611107e-05  5.1710216724513178e-05  6.8333988834478856e-05  8.9941739399436777e-05  1.1790954983395102e-04  1.5395687677345100e-04  2.0022162004823592e-04  2.5934872149413414e-04  3.3459400060436770e-04  4.2994496724298430e-04  5.5026033489527504e-04  7.0142987647479015e-04  8.9055610383148597e-04  1.1261589966089962e-03  1.4184046409076367e-03  1.7793581491601256e-03  2.2232606074076302e-03  2.7668290253980692e-03  3.4295773433758794e-03  4.2341554772614715e-03  5.2067021680001248e-03  6.3772060560001384e-03  7.7798679516195525e-03  9.4534557513241777e-03  1.1441641900558479e-02  1.3793311783140685e-02  1.6562829987698150e-02  1.9810250137757314e-02  2.3601452954108006e-02  2.8008196531010717e-02  3.3108062537993706e-02  3.8984282289998853e-02  4.5725427436907135e-02  5.3424951473353473e-02  6.2180570408405668e-02  7.2093473787130574e-02  8.3267360820473174e-02  9.5807300623631991e-02  1.0981842041994309e-01  1.2540443093563380e-01  1.4266600395395579e-01  1.6169902294505317e-01  1.8259273364104894e-01  2.0542782716109320e-01  2.3027449356976484e-01  2.5719048832901131e-01  2.8621925773818097e-01  3.1738817192411833e-01  3.5070691504759682e-01  3.8616608197708363e-01  4.2373602864015253e-01  4.6336601955040457e-01  5.0498371064312786e-01  5.4849499862577200e-01  5.9378425971932780e-01  6.4071499116101382e-01  6.8913085844480504e-01  7.3885714033245209e-01  7.8970255254925159e-01  8.4146142018338599e-01  8.9391615853717354e-01  9.4684001292167397e-01  1.0000000000000000e+00  </DataArray> 
</PointData> 
</Piece>
</UnstructuredGrid>
</VTKFile>