<?xml version="1.0"?>
<VTKFile type="UnstructuredGrid"  version="0.1"  >
<UnstructuredGrid>
<Piece  NumberOfPoints="101" NumberOfCells="100">
<Points>
<DataArray  type="Float64"  NumberOfComponents="3"  format="ascii">0 0 0  0.001 0 0  0.002 0 0  0.003 0 0  0.004 0 0  0.005 0 0  0.006000000000000001 0 0  0.007000000000000001 0 0  0.008 0 0  0.009000000000000001 0 0  0.01 0 0  0.011 0 0  0.012 0 0  0.013 0 0  0.014 0 0  0.015 0 0  0.016 0 0  0.017 0 0  0.018 0 0  0.019 0 0  0.02 0 0  0.021 0 0  0.022 0 0  0.023 0 0  0.024 0 0  0.025 0 0  0.026 0 0  0.027 0 0  0.028 0 0  0.029 0 0  0.03 0 0  0.031 0 0  0.032 0 0  0.033 0 0  0.034 0 0  0.035 0 0  0.036 0 0  0.03700000000000001 0 0  0.03800000000000001 0 0  0.03900000000000001 0 0  0.04 0 0  0.04100000000000001 0 0  0.042 0 0  0.043 0 0  0.044 0 0  0.045 0 0  0.04600000000000001 0 0  0.047 0 0  0.04800000000000001 0 0  0.049 0 0  0.05 0 0  0.051 0 0  0.052 0 0  0.05300000000000001 0 0  0.05400000000000001 0 0  0.055 0 0  0.05600000000000001 0 0  0.057 0 0  0.05800000000000001 0 0  0.059 0 0  0.06 0 0  0.06100000000000001 0 0  0.062 0 0  0.063 0 0  0.064 0 0  0.065 0 0  0.066 0 0  0.067 0 0  0.068 0 0  0.06900000000000001 0 0  0.07000000000000001 0 0  0.07100000000000001 0 0  0.07200000000000001 0 0  0.07300000000000001 0 0  0.07400000000000001 0 0  0.075 0 0  0.07600000000000001 0 0  0.077 0 0  0.07800000000000001 0 0  0.079 0 0  0.08 0 0  0.081 0 0  0.08200000000000002 0 0  0.083 0 0  0.08400000000000001 0 0  0.08500000000000001 0 0  0.08599999999999999 0 0  0.08700000000000001 0 0  0.08800000000000001 0 0  0.08900000000000001 0 0  0.09 0 0  0.091 0 0  0.09200000000000001 0 0  0.09300000000000001 0 0  0.094 0 0  0.095 0 0  0.09600000000000002 0 0  0.09700000000000002 0 0  0.098 0 0  0.099 0 0  0.1 0 0  </DataArray>
</Points>
<Cells>
<DataArray  type="UInt32"  Name="connectivity"  format="ascii">0 1  1 2  2 3  3 4  4 5  5 6  6 7  7 8  8 9  9 10  10 11  11 12  12 13  13 14  14 15  15 16  16 17  17 18  18 19  19 20  20 21  21 22  22 23  23 24  24 25  25 26  26 27  27 28  28 29  29 30  30 31  31 32  32 33  33 34  34 35  35 36  36 37  37 38  38 39  39 40  40 41  41 42  42 43  43 44  44 45  45 46  46 47  47 48  48 49  49 50  50 51  51 52  52 53  53 54  54 55  55 56  56 57  57 58  58 59  59 60  60 61  61 62  62 63  63 64  64 65  65 66  66 67  67 68  68 69  69 70  70 71  71 72  72 73  73 74  74 75  75 76  76 77  77 78  78 79  79 80  80 81  81 82  82 83  83 84  84 85  85 86  86 87  87 88  88 89  89 90  90 91  91 92  92 93  93 94  94 95  95 96  96 97  97 98  98 99  99 100  </DataArray>
<DataArray  type="UInt32"  Name="offsets"  format="ascii">2 4 6 8 10 12 14 16 18 20 22 24 26 28 30 32 34 36 38 40 42 44 46 48 50 52 54 56 58 60 62 64 66 68 70 72 74 76 78 80 82 84 86 88 90 92 94 96 98 100 102 104 106 108 110 112 114 116 118 120 122 124 126 128 130 132 134 136 138 140 142 144 146 148 150 152 154 156 158 160 162 164 166 168 170 172 174 176 178 180 182 184 186 188 190 192 194 196 198 200 </DataArray>
<DataArray  type="UInt8"  Name="types"  format="ascii">3 3 3 3 3 3 3 3 3 3 3 3 3 3 3 3 3 3 3 3 3 3 3 3 3 3 3 3 3 3 3 3 3 3 3 3 3 3 3 3 3 3 3 3 3 3 3 3 3 3 3 3 3 3 3 3 3 3 3 3 3 3 3 3 3 3 3 3 3 3 3 3 3 3 3 3 3 3 3 3 3 3 3 3 3 3 3 3 3 3 3 3 3 3 3 3 3 3 3 3 </DataArray>
</Cells>
<PointData  Scalars="f_14"> 
<DataArray  type="Float64"  Name="f_14"  format="ascii">5.7141723719550408e-04  5.7668439754135286e-04  5.9255622352487618e-04  6.1924426672946373e-04  6.5710283467016871e-04  7.0663156977504051e-04  7.6847905316653289e-04  8.4344742615587035e-04  9.3249801992104412e-04  1.0367579810903150e-03  1.1575278778367740e-03  1.2962902675489399e-03  1.4547192031261272e-03  1.6346906504098445e-03  1.8382937841651505e-03  2.0678431243376441e-03  2.3258914680101940e-03  2.6152435655554009e-03  2.9389704819222828e-03  3.3004245758166853e-03  3.7032550207541756e-03  4.1514237826137451e-03  4.6492219584454873e-03  5.2012863709441082e-03  5.8126163022649323e-03  6.4885902398164807e-03  7.2349824954144378e-03  8.0579795478405731e-03  8.9641959475458329e-03  9.9606896111110992e-03  1.1054976322287097e-02  1.2255043246142811e-02  1.3569361253236449e-02  1.5006895841970862e-02  1.6577116439598871e-02  1.8290003855902459e-02  2.0156055658584360e-02  2.2186289236083338e-02  2.4392242312055154e-02  2.6785970676344393e-02  2.9380042900093894e-02  3.2187531807873516e-02  3.5222002487515995e-02  3.8497496628868713e-02  4.2028512996019333e-02  4.5829983853829866e-02  4.9917247188877224e-02  5.4306014587179707e-02  5.9012334656392142e-02  6.4052551908423877e-02  6.9443261049607422e-02  7.5201256659481311e-02  8.1343478275798395e-02  8.7886950942305031e-02  9.4848721316910842e-02  1.0224578948077886e-01  1.1009503663327143e-01  1.1841314890319871e-01  1.2721653755302237e-01  1.3652125589908928e-01  1.4634291331714602e-01  1.5669658674776557e-01  1.6759673016039695e-01  1.7905708247695160e-01  1.9109057449560857e-01  2.0370923539230762e-01  2.1692409941062216e-01  2.3074511337984180e-01  2.4518104572561683e-01  2.6023939765693171e-01  2.7592631722703720e-01  2.9224651697387100e-01  3.0920319584707884e-01  3.2679796612373402e-01  3.4503078600300496e-01  3.6389989855120231e-01  3.8340177764276889e-01  4.0353108150986877e-01  4.2428061447340681e-01  4.4564129738169711e-01  4.6760214722995319e-01  4.9015026637455716e-01  5.1327084169122272e-01  5.3694715395614112e-01  5.6116059765465753e-01  5.8589071134359394e-01  6.1111521861180196e-01  6.3681007959964819e-01  6.6294955295276525e-01  6.8950626799945569e-01  7.1645130685543523e-01  7.4375429607516907e-01  7.7138350738672212e-01  7.9930596696779033e-01  8.2748757264523609e-01  8.5589321832990872e-01  8.8448692493359404e-01  9.1323197695633140e-01  9.4209106388077579e-01  9.7102642546633167e-01  1.0000000000000000e+00  </DataArray> 
</PointData> 
</Piece>
</UnstructuredGrid>
</VTKFile>