<?xml version="1.0"?>
<VTKFile type="UnstructuredGrid"  version="0.1"  >
<UnstructuredGrid>
<Piece  NumberOfPoints="101" NumberOfCells="100">
<Points>
<DataArray  type="Float64"  NumberOfComponents="3"  format="ascii">0 0 0  0.001 0 0  0.002 0 0  0.003 0 0  0.004 0 0  0.005 0 0  0.006000000000000001 0 0  0.007000000000000001 0 0  0.008 0 0  0.009000000000000001 0 0  0.01 0 0  0.011 0 0  0.012 0 0  0.013 0 0  0.014 0 0  0.015 0 0  0.016 0 0  0.017 0 0  0.018 0 0  0.019 0 0  0.02 0 0  0.021 0 0  0.022 0 0  0.023 0 0  0.024 0 0  0.025 0 0  0.026 0 0  0.027 0 0  0.028 0 0  0.029 0 0  0.03 0 0  0.031 0 0  0.032 0 0  0.033 0 0  0.034 0 0  0.035 0 0  0.036 0 0  0.03700000000000001 0 0  0.03800000000000001 0 0  0.03900000000000001 0 0  0.04 0 0  0.04100000000000001 0 0  0.042 0 0  0.043 0 0  0.044 0 0  0.045 0 0  0.04600000000000001 0 0  0.047 0 0  0.04800000000000001 0 0  0.049 0 0  0.05 0 0  0.051 0 0  0.052 0 0  0.05300000000000001 0 0  0.05400000000000001 0 0  0.055 0 0  0.05600000000000001 0 0  0.057 0 0  0.05800000000000001 0 0  0.059 0 0  0.06 0 0  0.06100000000000001 0 0  0.062 0 0  0.063 0 0  0.064 0 0  0.065 0 0  0.066 0 0  0.067 0 0  0.068 0 0  0.06900000000000001 0 0  0.07000000000000001 0 0  0.07100000000000001 0 0  0.07200000000000001 0 0  0.07300000000000001 0 0  0.07400000000000001 0 0  0.075 0 0  0.07600000000000001 0 0  0.077 0 0  0.07800000000000001 0 0  0.079 0 0  0.08 0 0  0.081 0 0  0.08200000000000002 0 0  0.083 0 0  0.08400000000000001 0 0  0.08500000000000001 0 0  0.08599999999999999 0 0  0.08700000000000001 0 0  0.08800000000000001 0 0  0.08900000000000001 0 0  0.09 0 0  0.091 0 0  0.09200000000000001 0 0  0.09300000000000001 0 0  0.094 0 0  0.095 0 0  0.09600000000000002 0 0  0.09700000000000002 0 0  0.098 0 0  0.099 0 0  0.1 0 0  </DataArray>
</Points>
<Cells>
<DataArray  type="UInt32"  Name="connectivity"  format="ascii">0 1  1 2  2 3  3 4  4 5  5 6  6 7  7 8  8 9  9 10  10 11  11 12  12 13  13 14  14 15  15 16  16 17  17 18  18 19  19 20  20 21  21 22  22 23  23 24  24 25  25 26  26 27  27 28  28 29  29 30  30 31  31 32  32 33  33 34  34 35  35 36  36 37  37 38  38 39  39 40  40 41  41 42  42 43  43 44  44 45  45 46  46 47  47 48  48 49  49 50  50 51  51 52  52 53  53 54  54 55  55 56  56 57  57 58  58 59  59 60  60 61  61 62  62 63  63 64  64 65  65 66  66 67  67 68  68 69  69 70  70 71  71 72  72 73  73 74  74 75  75 76  76 77  77 78  78 79  79 80  80 81  81 82  82 83  83 84  84 85  85 86  86 87  87 88  88 89  89 90  90 91  91 92  92 93  93 94  94 95  95 96  96 97  97 98  98 99  99 100  </DataArray>
<DataArray  type="UInt32"  Name="offsets"  format="ascii">2 4 6 8 10 12 14 16 18 20 22 24 26 28 30 32 34 36 38 40 42 44 46 48 50 52 54 56 58 60 62 64 66 68 70 72 74 76 78 80 82 84 86 88 90 92 94 96 98 100 102 104 106 108 110 112 114 116 118 120 122 124 126 128 130 132 134 136 138 140 142 144 146 148 150 152 154 156 158 160 162 164 166 168 170 172 174 176 178 180 182 184 186 188 190 192 194 196 198 200 </DataArray>
<DataArray  type="UInt8"  Name="types"  format="ascii">3 3 3 3 3 3 3 3 3 3 3 3 3 3 3 3 3 3 3 3 3 3 3 3 3 3 3 3 3 3 3 3 3 3 3 3 3 3 3 3 3 3 3 3 3 3 3 3 3 3 3 3 3 3 3 3 3 3 3 3 3 3 3 3 3 3 3 3 3 3 3 3 3 3 3 3 3 3 3 3 3 3 3 3 3 3 3 3 3 3 3 3 3 3 3 3 3 3 3 3 </DataArray>
</Cells>
<PointData  Scalars="f_14"> 
<DataArray  type="Float64"  Name="f_14"  format="ascii">7.1080760644756942e-08  7.4408242712187663e-08  8.4663828306237835e-08  1.0268597157304619e-07  1.2993661537596422e-07  1.6860174406301114e-07  2.2173985939574768e-07  2.9348644480539443e-07  3.8932531355538918e-07  5.1644097396705076e-07  6.8416989356060653e-07  9.0457291503910772e-07  1.1931561896378889e-06  1.5697739746303151e-06  2.0597536264769387e-06  2.6952912505102036e-06  3.5171758880878066e-06  4.5769109805749607e-06  5.9393142919826830e-06  7.6856916369823902e-06  9.9176957728932778e-06  1.2761999775734277e-05  1.6375934202543331e-05  2.0954259372838724e-05  2.6737268153107502e-05  3.4020440600415029e-05  4.3165899528340802e-05  5.4615945209547430e-05  6.8908977610566960e-05  8.6698145210521466e-05  1.0877308987146233e-04  1.3608518651211650e-04  1.6977670340598912e-04  2.1121433249329108e-04  2.6202755766919524e-04  3.2415234088432562e-04  3.9988060916115373e-04  4.9191601820123144e-04  6.0343644788488418e-04  7.3816364928203700e-04  9.0044040937166110e-04  1.0953155260838598e-03  1.3286367901959894e-03  1.6071520498807019e-03  1.9386182864634296e-03  2.3319184547646453e-03  2.7971856373967463e-03  3.3459338293697558e-03  3.9911944079857884e-03  4.7476570548961516e-03  5.6318135850945165e-03  6.6621028054809879e-03  7.8590541787282326e-03  9.2454277131529435e-03  1.0846347144178871e-02  1.2689423127166781e-02  1.4804862835557958e-02  1.7225562064241976e-02  1.9987175688557693e-02  2.3128162137756890e-02  2.6689797421813082e-02  3.0716154215745153e-02  3.5254041569212233e-02  4.0352900983009414e-02  4.6064654888644162e-02  5.2443503990633203e-02  5.9545670489031484e-02  6.7429084894257182e-02  7.6153014976039865e-02  8.5777636347691574e-02  9.6363545265836445e-02  1.0797121540955855e-01  1.2066040167229956e-01  1.3448949533086130e-01  1.4951483632040929e-01  1.6578998971051137e-01  1.8336499480996052e-01  2.0228559659010714e-01  2.2259247026910164e-01  2.4432045090401511e-01  2.6749778065667063e-01  2.9214538699675879e-01  3.1827620545089080e-01  3.4589456057189072e-01  3.7499561856839531e-01  4.0556492448736242e-01  4.3757803597629952e-01  4.7100026447143850e-01  5.0578653317554689e-01  5.4188135942663462e-01  5.7921896704751052e-01  6.1772353204566832e-01  6.5730956265045082e-01  6.9788241218361280e-01  7.3933892071891527e-01  7.8156817895830699e-01  8.2445240530015074e-01  8.6786792476195362e-01  9.1168623630687762e-01  9.5577515326629459e-01  1.0000000000000000e+00  </DataArray> 
</PointData> 
</Piece>
</UnstructuredGrid>
</VTKFile>