<?xml version="1.0"?>
<VTKFile type="UnstructuredGrid"  version="0.1"  >
<UnstructuredGrid>
<Piece  NumberOfPoints="101" NumberOfCells="100">
<Points>
<DataArray  type="Float64"  NumberOfComponents="3"  format="ascii">0 0 0  0.001 0 0  0.002 0 0  0.003 0 0  0.004 0 0  0.005 0 0  0.006000000000000001 0 0  0.007000000000000001 0 0  0.008 0 0  0.009000000000000001 0 0  0.01 0 0  0.011 0 0  0.012 0 0  0.013 0 0  0.014 0 0  0.015 0 0  0.016 0 0  0.017 0 0  0.018 0 0  0.019 0 0  0.02 0 0  0.021 0 0  0.022 0 0  0.023 0 0  0.024 0 0  0.025 0 0  0.026 0 0  0.027 0 0  0.028 0 0  0.029 0 0  0.03 0 0  0.031 0 0  0.032 0 0  0.033 0 0  0.034 0 0  0.035 0 0  0.036 0 0  0.03700000000000001 0 0  0.03800000000000001 0 0  0.03900000000000001 0 0  0.04 0 0  0.04100000000000001 0 0  0.042 0 0  0.043 0 0  0.044 0 0  0.045 0 0  0.04600000000000001 0 0  0.047 0 0  0.04800000000000001 0 0  0.049 0 0  0.05 0 0  0.051 0 0  0.052 0 0  0.05300000000000001 0 0  0.05400000000000001 0 0  0.055 0 0  0.05600000000000001 0 0  0.057 0 0  0.05800000000000001 0 0  0.059 0 0  0.06 0 0  0.06100000000000001 0 0  0.062 0 0  0.063 0 0  0.064 0 0  0.065 0 0  0.066 0 0  0.067 0 0  0.068 0 0  0.06900000000000001 0 0  0.07000000000000001 0 0  0.07100000000000001 0 0  0.07200000000000001 0 0  0.07300000000000001 0 0  0.07400000000000001 0 0  0.075 0 0  0.07600000000000001 0 0  0.077 0 0  0.07800000000000001 0 0  0.079 0 0  0.08 0 0  0.081 0 0  0.08200000000000002 0 0  0.083 0 0  0.08400000000000001 0 0  0.08500000000000001 0 0  0.08599999999999999 0 0  0.08700000000000001 0 0  0.08800000000000001 0 0  0.08900000000000001 0 0  0.09 0 0  0.091 0 0  0.09200000000000001 0 0  0.09300000000000001 0 0  0.094 0 0  0.095 0 0  0.09600000000000002 0 0  0.09700000000000002 0 0  0.098 0 0  0.099 0 0  0.1 0 0  </DataArray>
</Points>
<Cells>
<DataArray  type="UInt32"  Name="connectivity"  format="ascii">0 1  1 2  2 3  3 4  4 5  5 6  6 7  7 8  8 9  9 10  10 11  11 12  12 13  13 14  14 15  15 16  16 17  17 18  18 19  19 20  20 21  21 22  22 23  23 24  24 25  25 26  26 27  27 28  28 29  29 30  30 31  31 32  32 33  33 34  34 35  35 36  36 37  37 38  38 39  39 40  40 41  41 42  42 43  43 44  44 45  45 46  46 47  47 48  48 49  49 50  50 51  51 52  52 53  53 54  54 55  55 56  56 57  57 58  58 59  59 60  60 61  61 62  62 63  63 64  64 65  65 66  66 67  67 68  68 69  69 70  70 71  71 72  72 73  73 74  74 75  75 76  76 77  77 78  78 79  79 80  80 81  81 82  82 83  83 84  84 85  85 86  86 87  87 88  88 89  89 90  90 91  91 92  92 93  93 94  94 95  95 96  96 97  97 98  98 99  99 100  </DataArray>
<DataArray  type="UInt32"  Name="offsets"  format="ascii">2 4 6 8 10 12 14 16 18 20 22 24 26 28 30 32 34 36 38 40 42 44 46 48 50 52 54 56 58 60 62 64 66 68 70 72 74 76 78 80 82 84 86 88 90 92 94 96 98 100 102 104 106 108 110 112 114 116 118 120 122 124 126 128 130 132 134 136 138 140 142 144 146 148 150 152 154 156 158 160 162 164 166 168 170 172 174 176 178 180 182 184 186 188 190 192 194 196 198 200 </DataArray>
<DataArray  type="UInt8"  Name="types"  format="ascii">3 3 3 3 3 3 3 3 3 3 3 3 3 3 3 3 3 3 3 3 3 3 3 3 3 3 3 3 3 3 3 3 3 3 3 3 3 3 3 3 3 3 3 3 3 3 3 3 3 3 3 3 3 3 3 3 3 3 3 3 3 3 3 3 3 3 3 3 3 3 3 3 3 3 3 3 3 3 3 3 3 3 3 3 3 3 3 3 3 3 3 3 3 3 3 3 3 3 3 3 </DataArray>
</Cells>
<PointData  Scalars="f_14"> 
<DataArray  type="Float64"  Name="f_14"  format="ascii">2.2847306439557186e-07  2.3767713851802138e-07  2.6593220556345267e-07  3.1520425250420540e-07  3.8889646493767366e-07  4.9204502997413425e-07  6.3160542670208508e-07  8.1684179796396167e-07  1.0598362090207091e-06  1.3761392759497654e-06  1.7855888977108637e-06  2.3133297609927001e-06  2.9910730176454233e-06  3.8586431720511482e-06  4.9658678695730089e-06  6.3748760520829564e-06  8.1628809393615406e-06  1.0425536590472443e-05  1.3280970464070316e-05  1.6874609474184227e-05  2.1384933540331817e-05  2.7030308530311742e-05  3.4077069714247903e-05  4.2849047253854220e-05  5.3738746635839031e-05  6.7220419035820091e-05  8.3865278989036664e-05  1.0435914896222344e-04  1.2952283186818225e-04  1.6033553251782864e-04  1.9796166660973095e-04  2.4378141012493620e-04  2.9942535179965687e-04  3.6681361543243891e-04  4.4819981576500457e-04  5.4622020006900003e-04  6.6394830580163633e-04  8.0495543113497732e-04  9.7337716817475709e-04  1.1739861866564721e-03  1.4122713773202778e-03  1.6945233676583262e-03  2.0279263071635804e-03  2.4206556837618552e-03  2.8819817773463965e-03  3.4223781803077512e-03  4.0536346192824764e-03  4.7889730983108007e-03  5.6431661532117781e-03  6.6326557630725733e-03  7.7756712109860225e-03  9.0923439271237902e-03  1.0604817088373259e-02  1.2337347496442354e-02  1.4316397017727751e-02  1.6570710651265082e-02  1.9131378104264993e-02  2.2031875607060127e-02  2.5308084599959556e-02  2.8998283882729230e-02  3.3143111842112764e-02  3.7785495472288100e-02  4.2970543084819152e-02  4.8745397874619747e-02  5.5159049871190448e-02  6.2262104262459435e-02  7.0106504632203498e-02  7.8745210298961296e-02  8.8231827679500385e-02  9.8620196415260028e-02  1.0996393188473540e-01  1.2231592666446758e-01  1.3572781447922999e-01  1.5024940117855010e-01  1.6592806826991552e-01  1.8280815550500587e-01  2.0093032992880547e-01  2.2033094963645763e-01  2.4104143121318067e-01  2.6308763043307709e-01  2.8648924623949357e-01  3.1125925830114048e-01  3.3740340851622347e-01  3.6491973670683842e-01  3.9379818039802694e-01  4.2402024800540528e-01  4.5555877396308769e-01  4.8837776331641902e-01  5.2243233209458162e-01  5.5766874838514624e-01  5.9402457748033832e-01  6.3142893278283452e-01  6.6980283238127380e-01  7.0905965937028159e-01  7.4910572213720106e-01  7.8984090901025794e-01  8.3115942990334013e-01  8.7295063594310485e-01  9.1509990656486739e-01  9.5748959225178620e-01  1.0000000000000000e+00  </DataArray> 
</PointData> 
</Piece>
</UnstructuredGrid>
</VTKFile>