<?xml version="1.0"?>
<VTKFile type="UnstructuredGrid"  version="0.1"  >
<UnstructuredGrid>
<Piece  NumberOfPoints="101" NumberOfCells="100">
<Points>
<DataArray  type="Float64"  NumberOfComponents="3"  format="ascii">0 0 0  0.001 0 0  0.002 0 0  0.003 0 0  0.004 0 0  0.005 0 0  0.006000000000000001 0 0  0.007000000000000001 0 0  0.008 0 0  0.009000000000000001 0 0  0.01 0 0  0.011 0 0  0.012 0 0  0.013 0 0  0.014 0 0  0.015 0 0  0.016 0 0  0.017 0 0  0.018 0 0  0.019 0 0  0.02 0 0  0.021 0 0  0.022 0 0  0.023 0 0  0.024 0 0  0.025 0 0  0.026 0 0  0.027 0 0  0.028 0 0  0.029 0 0  0.03 0 0  0.031 0 0  0.032 0 0  0.033 0 0  0.034 0 0  0.035 0 0  0.036 0 0  0.03700000000000001 0 0  0.03800000000000001 0 0  0.03900000000000001 0 0  0.04 0 0  0.04100000000000001 0 0  0.042 0 0  0.043 0 0  0.044 0 0  0.045 0 0  0.04600000000000001 0 0  0.047 0 0  0.04800000000000001 0 0  0.049 0 0  0.05 0 0  0.051 0 0  0.052 0 0  0.05300000000000001 0 0  0.05400000000000001 0 0  0.055 0 0  0.05600000000000001 0 0  0.057 0 0  0.05800000000000001 0 0  0.059 0 0  0.06 0 0  0.06100000000000001 0 0  0.062 0 0  0.063 0 0  0.064 0 0  0.065 0 0  0.066 0 0  0.067 0 0  0.068 0 0  0.06900000000000001 0 0  0.07000000000000001 0 0  0.07100000000000001 0 0  0.07200000000000001 0 0  0.07300000000000001 0 0  0.07400000000000001 0 0  0.075 0 0  0.07600000000000001 0 0  0.077 0 0  0.07800000000000001 0 0  0.079 0 0  0.08 0 0  0.081 0 0  0.08200000000000002 0 0  0.083 0 0  0.08400000000000001 0 0  0.08500000000000001 0 0  0.08599999999999999 0 0  0.08700000000000001 0 0  0.08800000000000001 0 0  0.08900000000000001 0 0  0.09 0 0  0.091 0 0  0.09200000000000001 0 0  0.09300000000000001 0 0  0.094 0 0  0.095 0 0  0.09600000000000002 0 0  0.09700000000000002 0 0  0.098 0 0  0.099 0 0  0.1 0 0  </DataArray>
</Points>
<Cells>
<DataArray  type="UInt32"  Name="connectivity"  format="ascii">0 1  1 2  2 3  3 4  4 5  5 6  6 7  7 8  8 9  9 10  10 11  11 12  12 13  13 14  14 15  15 16  16 17  17 18  18 19  19 20  20 21  21 22  22 23  23 24  24 25  25 26  26 27  27 28  28 29  29 30  30 31  31 32  32 33  33 34  34 35  35 36  36 37  37 38  38 39  39 40  40 41  41 42  42 43  43 44  44 45  45 46  46 47  47 48  48 49  49 50  50 51  51 52  52 53  53 54  54 55  55 56  56 57  57 58  58 59  59 60  60 61  61 62  62 63  63 64  64 65  65 66  66 67  67 68  68 69  69 70  70 71  71 72  72 73  73 74  74 75  75 76  76 77  77 78  78 79  79 80  80 81  81 82  82 83  83 84  84 85  85 86  86 87  87 88  88 89  89 90  90 91  91 92  92 93  93 94  94 95  95 96  96 97  97 98  98 99  99 100  </DataArray>
<DataArray  type="UInt32"  Name="offsets"  format="ascii">2 4 6 8 10 12 14 16 18 20 22 24 26 28 30 32 34 36 38 40 42 44 46 48 50 52 54 56 58 60 62 64 66 68 70 72 74 76 78 80 82 84 86 88 90 92 94 96 98 100 102 104 106 108 110 112 114 116 118 120 122 124 126 128 130 132 134 136 138 140 142 144 146 148 150 152 154 156 158 160 162 164 166 168 170 172 174 176 178 180 182 184 186 188 190 192 194 196 198 200 </DataArray>
<DataArray  type="UInt8"  Name="types"  format="ascii">3 3 3 3 3 3 3 3 3 3 3 3 3 3 3 3 3 3 3 3 3 3 3 3 3 3 3 3 3 3 3 3 3 3 3 3 3 3 3 3 3 3 3 3 3 3 3 3 3 3 3 3 3 3 3 3 3 3 3 3 3 3 3 3 3 3 3 3 3 3 3 3 3 3 3 3 3 3 3 3 3 3 3 3 3 3 3 3 3 3 3 3 3 3 3 3 3 3 3 3 </DataArray>
</Cells>
<PointData  Scalars="f_14"> 
<DataArray  type="Float64"  Name="f_14"  format="ascii">2.6613994286145222e-05  2.7112630429146692e-05  2.8623574253720412e-05  3.1192262044124439e-05  3.4895525197893520e-05  3.9843260353753135e-05  4.6180794983903294e-05  5.4091975693764844e-05  6.3803014003488634e-05  7.5587131710840835e-05  8.9770054990730708e-05  1.0673641309852401e-04  1.2693710382645544e-04  1.5089769361595139e-04  1.7922792534051730e-04  2.1263241111640311e-04  2.5192259092896745e-04  2.9803004022413058e-04  3.5202121073495173e-04  4.1511368850846947e-04  4.8869405117136903e-04  5.7433740271945291e-04  6.7382865832370156e-04  7.8918564360065647e-04  9.2268406228419495e-04  1.0768843730533260e-03  1.2546606002223489e-03  1.4592310839098746e-03  1.6941911530214434e-03  1.9635476787888649e-03  2.2717554376305350e-03  2.6237551797018170e-03  3.0250132637205055e-03  3.4815626795719297e-03  4.0000452379859519e-03  4.5877546614789821e-03  5.2526802630995240e-03  6.0035508497292209e-03  6.8498784352932444e-03  7.8020012968435248e-03  8.8711258538157270e-03  1.0069366798644839e-02  1.1409784856268751e-02  1.2906421501859108e-02  1.4574329921475756e-02  1.6429601460400609e-02  1.8489386769872707e-02  2.0771910836060663e-02  2.3296481056631128e-02  2.6083487521445715e-02  2.9154394655964998e-02  3.2531723399999699e-02  3.6239023121593321e-02  4.0300832506974353e-02  4.4742628723464573e-02  4.9590764223563476e-02  5.4872390645521345e-02  6.0615369368694445e-02  6.6848168400702845e-02  7.3599745407435177e-02  8.0899416845526095e-02  8.8776713318969289e-02  9.7261221455622535e-02  1.0638241278374713e-01  1.1616946028132014e-01  1.2665104346927716e-01  1.3785514312138286e-01  1.4980882686514604e-01  1.6253802714691643e-01  1.7606731322667002e-01  1.9041965905053668e-01  2.0561620901830505e-01  2.2167604381542369e-01  2.3861594861093480e-01  2.5645018603100972e-01  2.7519027639919785e-01  2.9484478778635126e-01  3.1541913843297970e-01  3.3691541409255432e-01  3.5933220279441891e-01  3.8266444943862177e-01  4.0690333251165545e-01  4.3203616505215503e-01  4.5804632179988475e-01  4.8491319423147478e-01  5.1261217492454680e-01  5.4111467240101863e-01  5.7038815728396441e-01  6.0039624026448812e-01  6.3109878202027070e-01  6.6245203486066540e-01  6.9440881549991984e-01  7.2691870798578428e-01  7.5992829544127749e-01  7.9338141891845326e-01  8.2721946132042057e-01  8.6138165402716838e-01  8.9580540356720550e-01  9.3042663541552584e-01  9.6518015177331840e-01  1.0000000000000000e+00  </DataArray> 
</PointData> 
</Piece>
</UnstructuredGrid>
</VTKFile>