<?xml version="1.0"?>
<VTKFile type="UnstructuredGrid"  version="0.1"  >
<UnstructuredGrid>
<Piece  NumberOfPoints="101" NumberOfCells="100">
<Points>
<DataArray  type="Float64"  NumberOfComponents="3"  format="ascii">0 0 0  0.001 0 0  0.002 0 0  0.003 0 0  0.004 0 0  0.005 0 0  0.006000000000000001 0 0  0.007000000000000001 0 0  0.008 0 0  0.009000000000000001 0 0  0.01 0 0  0.011 0 0  0.012 0 0  0.013 0 0  0.014 0 0  0.015 0 0  0.016 0 0  0.017 0 0  0.018 0 0  0.019 0 0  0.02 0 0  0.021 0 0  0.022 0 0  0.023 0 0  0.024 0 0  0.025 0 0  0.026 0 0  0.027 0 0  0.028 0 0  0.029 0 0  0.03 0 0  0.031 0 0  0.032 0 0  0.033 0 0  0.034 0 0  0.035 0 0  0.036 0 0  0.03700000000000001 0 0  0.03800000000000001 0 0  0.03900000000000001 0 0  0.04 0 0  0.04100000000000001 0 0  0.042 0 0  0.043 0 0  0.044 0 0  0.045 0 0  0.04600000000000001 0 0  0.047 0 0  0.04800000000000001 0 0  0.049 0 0  0.05 0 0  0.051 0 0  0.052 0 0  0.05300000000000001 0 0  0.05400000000000001 0 0  0.055 0 0  0.05600000000000001 0 0  0.057 0 0  0.05800000000000001 0 0  0.059 0 0  0.06 0 0  0.06100000000000001 0 0  0.062 0 0  0.063 0 0  0.064 0 0  0.065 0 0  0.066 0 0  0.067 0 0  0.068 0 0  0.06900000000000001 0 0  0.07000000000000001 0 0  0.07100000000000001 0 0  0.07200000000000001 0 0  0.07300000000000001 0 0  0.07400000000000001 0 0  0.075 0 0  0.07600000000000001 0 0  0.077 0 0  0.07800000000000001 0 0  0.079 0 0  0.08 0 0  0.081 0 0  0.08200000000000002 0 0  0.083 0 0  0.08400000000000001 0 0  0.08500000000000001 0 0  0.08599999999999999 0 0  0.08700000000000001 0 0  0.08800000000000001 0 0  0.08900000000000001 0 0  0.09 0 0  0.091 0 0  0.09200000000000001 0 0  0.09300000000000001 0 0  0.094 0 0  0.095 0 0  0.09600000000000002 0 0  0.09700000000000002 0 0  0.098 0 0  0.099 0 0  0.1 0 0  </DataArray>
</Points>
<Cells>
<DataArray  type="UInt32"  Name="connectivity"  format="ascii">0 1  1 2  2 3  3 4  4 5  5 6  6 7  7 8  8 9  9 10  10 11  11 12  12 13  13 14  14 15  15 16  16 17  17 18  18 19  19 20  20 21  21 22  22 23  23 24  24 25  25 26  26 27  27 28  28 29  29 30  30 31  31 32  32 33  33 34  34 35  35 36  36 37  37 38  38 39  39 40  40 41  41 42  42 43  43 44  44 45  45 46  46 47  47 48  48 49  49 50  50 51  51 52  52 53  53 54  54 55  55 56  56 57  57 58  58 59  59 60  60 61  61 62  62 63  63 64  64 65  65 66  66 67  67 68  68 69  69 70  70 71  71 72  72 73  73 74  74 75  75 76  76 77  77 78  78 79  79 80  80 81  81 82  82 83  83 84  84 85  85 86  86 87  87 88  88 89  89 90  90 91  91 92  92 93  93 94  94 95  95 96  96 97  97 98  98 99  99 100  </DataArray>
<DataArray  type="UInt32"  Name="offsets"  format="ascii">2 4 6 8 10 12 14 16 18 20 22 24 26 28 30 32 34 36 38 40 42 44 46 48 50 52 54 56 58 60 62 64 66 68 70 72 74 76 78 80 82 84 86 88 90 92 94 96 98 100 102 104 106 108 110 112 114 116 118 120 122 124 126 128 130 132 134 136 138 140 142 144 146 148 150 152 154 156 158 160 162 164 166 168 170 172 174 176 178 180 182 184 186 188 190 192 194 196 198 200 </DataArray>
<DataArray  type="UInt8"  Name="types"  format="ascii">3 3 3 3 3 3 3 3 3 3 3 3 3 3 3 3 3 3 3 3 3 3 3 3 3 3 3 3 3 3 3 3 3 3 3 3 3 3 3 3 3 3 3 3 3 3 3 3 3 3 3 3 3 3 3 3 3 3 3 3 3 3 3 3 3 3 3 3 3 3 3 3 3 3 3 3 3 3 3 3 3 3 3 3 3 3 3 3 3 3 3 3 3 3 3 3 3 3 3 3 </DataArray>
</Cells>
<PointData  Scalars="f_14"> 
<DataArray  type="Float64"  Name="f_14"  format="ascii">4.6818483063921335e-11  5.1424997632523712e-11  6.6075869664118220e-11  9.3400841043364268e-11  1.3825502535153575e-10  2.0849859419728532e-10  3.1624020632542233e-10  4.7971829443706723e-10  7.2607837032568760e-10  1.0954188886132157e-09  1.6466352035267639e-09  2.4658069685499897e-09  3.6781703893058021e-09  5.4651212982499996e-09  8.0882451604414138e-09  1.1923114232502307e-08  1.7506592899737026e-08  2.5602730410478887e-08  3.7294098860345792e-08  5.4107783882404167e-08  7.8188320029110638e-08  1.1253388642566957e-07  1.6131729275485990e-07  2.3031999862624701e-07  3.2751599280203213e-07  4.6385325727020290e-07  6.5429428010658727e-07  9.1919427302155360e-07  1.2861170985065266e-06  1.7922152138027151e-06  2.4873320784278944e-06  3.4380244088929912e-06  4.7327484144282591e-06  6.4885097507111568e-06  8.8593424023525710e-06  1.2047057982497284e-05  1.6314794787161096e-05  2.2003995863536010e-05  2.9555557455261725e-05  3.9536013046675775e-05  5.2669752711890701e-05  6.9878420564670353e-05  9.2328781697853705e-05  1.2149049970658457e-04  1.5920541083734604e-04  2.0777001347100811e-04  2.7003300272211207e-04  3.4950975824744976e-04  4.5051572588352019e-04  5.7832060572153338e-04  7.3932515444813341e-04  9.4126221092796216e-04  1.1934232432979229e-03  1.5069112757983116e-03  1.8949204679759443e-03  2.3730418739974996e-03  2.9595939956309813e-03  3.6759756542689894e-03  4.5470374472632831e-03  5.6014666322500564e-03  6.8721787203115227e-03  8.3967073860342113e-03  1.0217582563057909e-02  1.2382684843262329e-02  1.4945562604316922e-02  1.7965696733398213e-02  2.1508696483749395e-02  2.5646408992015833e-02  3.0456924398416418e-02  3.6024458448886951e-02  4.2439095012987850e-02  4.9796372207117037e-02  5.8196697835753666e-02  6.7744582697124273e-02  7.8547683957694514e-02  9.0715655261719180e-02  1.0435880544865384e-01  1.1958657360221786e-01  1.3650583450793666e-01  1.5521905526787183e-01  1.7582233059179492e-01  1.9840333090196638e-01  2.2303920358039117e-01  2.4979447316748965e-01  2.7871899080508328e-01  3.0984598643449246e-01  3.4319027897165366e-01  3.7874669968796987e-01  4.1648878218736435e-01  4.5636776861402190e-01  4.9831197605560218e-01  5.4222655960979049e-01  5.8799369942785118e-01  6.3547322848840937e-01  6.8450370621256773e-01  7.3490393069456661e-01  7.8647486972438474e-01  8.3900197838243873e-01  8.9225785926233159e-01  9.4600521078221456e-01  1.0000000000000000e+00  </DataArray> 
</PointData> 
</Piece>
</UnstructuredGrid>
</VTKFile>