<?xml version="1.0"?>
<VTKFile type="UnstructuredGrid"  version="0.1"  >
<UnstructuredGrid>
<Piece  NumberOfPoints="101" NumberOfCells="100">
<Points>
<DataArray  type="Float64"  NumberOfComponents="3"  format="ascii">0 0 0  0.001 0 0  0.002 0 0  0.003 0 0  0.004 0 0  0.005 0 0  0.006000000000000001 0 0  0.007000000000000001 0 0  0.008 0 0  0.009000000000000001 0 0  0.01 0 0  0.011 0 0  0.012 0 0  0.013 0 0  0.014 0 0  0.015 0 0  0.016 0 0  0.017 0 0  0.018 0 0  0.019 0 0  0.02 0 0  0.021 0 0  0.022 0 0  0.023 0 0  0.024 0 0  0.025 0 0  0.026 0 0  0.027 0 0  0.028 0 0  0.029 0 0  0.03 0 0  0.031 0 0  0.032 0 0  0.033 0 0  0.034 0 0  0.035 0 0  0.036 0 0  0.03700000000000001 0 0  0.03800000000000001 0 0  0.03900000000000001 0 0  0.04 0 0  0.04100000000000001 0 0  0.042 0 0  0.043 0 0  0.044 0 0  0.045 0 0  0.04600000000000001 0 0  0.047 0 0  0.04800000000000001 0 0  0.049 0 0  0.05 0 0  0.051 0 0  0.052 0 0  0.05300000000000001 0 0  0.05400000000000001 0 0  0.055 0 0  0.05600000000000001 0 0  0.057 0 0  0.05800000000000001 0 0  0.059 0 0  0.06 0 0  0.06100000000000001 0 0  0.062 0 0  0.063 0 0  0.064 0 0  0.065 0 0  0.066 0 0  0.067 0 0  0.068 0 0  0.06900000000000001 0 0  0.07000000000000001 0 0  0.07100000000000001 0 0  0.07200000000000001 0 0  0.07300000000000001 0 0  0.07400000000000001 0 0  0.075 0 0  0.07600000000000001 0 0  0.077 0 0  0.07800000000000001 0 0  0.079 0 0  0.08 0 0  0.081 0 0  0.08200000000000002 0 0  0.083 0 0  0.08400000000000001 0 0  0.08500000000000001 0 0  0.08599999999999999 0 0  0.08700000000000001 0 0  0.08800000000000001 0 0  0.08900000000000001 0 0  0.09 0 0  0.091 0 0  0.09200000000000001 0 0  0.09300000000000001 0 0  0.094 0 0  0.095 0 0  0.09600000000000002 0 0  0.09700000000000002 0 0  0.098 0 0  0.099 0 0  0.1 0 0  </DataArray>
</Points>
<Cells>
<DataArray  type="UInt32"  Name="connectivity"  format="ascii">0 1  1 2  2 3  3 4  4 5  5 6  6 7  7 8  8 9  9 10  10 11  11 12  12 13  13 14  14 15  15 16  16 17  17 18  18 19  19 20  20 21  21 22  22 23  23 24  24 25  25 26  26 27  27 28  28 29  29 30  30 31  31 32  32 33  33 34  34 35  35 36  36 37  37 38  38 39  39 40  40 41  41 42  42 43  43 44  44 45  45 46  46 47  47 48  48 49  49 50  50 51  51 52  52 53  53 54  54 55  55 56  56 57  57 58  58 59  59 60  60 61  61 62  62 63  63 64  64 65  65 66  66 67  67 68  68 69  69 70  70 71  71 72  72 73  73 74  74 75  75 76  76 77  77 78  78 79  79 80  80 81  81 82  82 83  83 84  84 85  85 86  86 87  87 88  88 89  89 90  90 91  91 92  92 93  93 94  94 95  95 96  96 97  97 98  98 99  99 100  </DataArray>
<DataArray  type="UInt32"  Name="offsets"  format="ascii">2 4 6 8 10 12 14 16 18 20 22 24 26 28 30 32 34 36 38 40 42 44 46 48 50 52 54 56 58 60 62 64 66 68 70 72 74 76 78 80 82 84 86 88 90 92 94 96 98 100 102 104 106 108 110 112 114 116 118 120 122 124 126 128 130 132 134 136 138 140 142 144 146 148 150 152 154 156 158 160 162 164 166 168 170 172 174 176 178 180 182 184 186 188 190 192 194 196 198 200 </DataArray>
<DataArray  type="UInt8"  Name="types"  format="ascii">3 3 3 3 3 3 3 3 3 3 3 3 3 3 3 3 3 3 3 3 3 3 3 3 3 3 3 3 3 3 3 3 3 3 3 3 3 3 3 3 3 3 3 3 3 3 3 3 3 3 3 3 3 3 3 3 3 3 3 3 3 3 3 3 3 3 3 3 3 3 3 3 3 3 3 3 3 3 3 3 3 3 3 3 3 3 3 3 3 3 3 3 3 3 3 3 3 3 3 3 </DataArray>
</Cells>
<PointData  Scalars="f_14"> 
<DataArray  type="Float64"  Name="f_14"  format="ascii">4.6556447867252161e-04  4.7010194798470333e-04  4.8377907300556708e-04  5.0679052978755770e-04  5.3946252721129187e-04  5.8225542825151623e-04  6.3576741576027980e-04  7.0073919844942868e-04  7.7805975105462669e-04  8.6877308061951441e-04  9.7408600838170287e-04  1.0953769538064636e-03  1.2342057038386557e-03  1.3923241463737748e-03  1.5716879422368777e-03  1.7744691045629441e-03  2.0030694483619354e-03  2.2601348662037372e-03  2.5485703783601796e-03  2.8715558973924026e-03  3.2325626380834654e-03  3.6353700938126276e-03  4.0840834899876360e-03  4.5831516140476987e-03  5.1373849098909083e-03  5.7519737124498331e-03  6.4325064856382798e-03  7.1849879141369774e-03  8.0158566866095834e-03  8.9320027950910690e-03  9.9407841626330627e-03  1.1050042399003684e-02  1.2268117472515352e-02  1.3603861075097839e-02  1.5066648447760350e-02  1.6666388424819368e-02  1.8413531447938111e-02  2.0319075295361488e-02  2.2394568267971187e-02  2.4652109572159124e-02  2.7104346640248668e-02  2.9764469132495423e-02  3.2646199370772552e-02  3.5763778963073770e-02  3.9131951390104738e-02  4.2765940340620756e-02  4.6681423600901835e-02  5.0894502325905547e-02  5.5421665545236844e-02  6.0279749786101067e-02  6.5485893727818975e-02  7.1057487838158143e-02  7.7012118980538974e-02  8.3367510022883340e-02  9.0141454523243014e-02  9.7351746614060194e-02  1.0501610625561109e-01  1.1315210007945641e-01  1.2177705809411465e-01  1.3090798657716823e-01  1.4056147753009096e-01  1.5075361512363999e-01  1.6149987961210460e-01  1.7281504924340624e-01  1.8471310073835043e-01  1.9720710895561114e-01  2.1030914639860473e-01  2.2403018325567153e-01  2.3837998869529806e-01  2.5336703416289763e-01  2.6899839944438036e-01  2.8527968227388045e-01  3.0221491226814479e-01  3.1980646996783263e-01  3.3805501175606439e-01  3.5695940140674909e-01  3.7651664898941900e-01  3.9672185782345881e-01  4.1756818013284192e-01  4.3904678200288960e-01  4.6114681818352909e-01  4.8385541721929726e-01  5.0715767731553218e-01  5.3103667327328186e-01  5.5547347474318831e-01  5.8044717596168272e-01  6.0593493704213064e-01  6.3191203679996499e-01  6.5835193699530614e-01  6.8522635778014762e-01  7.1250536404082709e-01  7.4015746223136969e-01  7.6814970720038167e-01  7.9644781842456258e-01  8.2501630497663248e-01  8.5381859847551389e-01  8.8281719319292262e-01  9.1197379242397902e-01  9.4124946017083455e-01  9.7060477713833326e-01  1.0000000000000000e+00  </DataArray> 
</PointData> 
</Piece>
</UnstructuredGrid>
</VTKFile>