<?xml version="1.0"?>
<VTKFile type="UnstructuredGrid"  version="0.1"  >
<UnstructuredGrid>
<Piece  NumberOfPoints="101" NumberOfCells="100">
<Points>
<DataArray  type="Float64"  NumberOfComponents="3"  format="ascii">0 0 0  0.001 0 0  0.002 0 0  0.003 0 0  0.004 0 0  0.005 0 0  0.006000000000000001 0 0  0.007000000000000001 0 0  0.008 0 0  0.009000000000000001 0 0  0.01 0 0  0.011 0 0  0.012 0 0  0.013 0 0  0.014 0 0  0.015 0 0  0.016 0 0  0.017 0 0  0.018 0 0  0.019 0 0  0.02 0 0  0.021 0 0  0.022 0 0  0.023 0 0  0.024 0 0  0.025 0 0  0.026 0 0  0.027 0 0  0.028 0 0  0.029 0 0  0.03 0 0  0.031 0 0  0.032 0 0  0.033 0 0  0.034 0 0  0.035 0 0  0.036 0 0  0.03700000000000001 0 0  0.03800000000000001 0 0  0.03900000000000001 0 0  0.04 0 0  0.04100000000000001 0 0  0.042 0 0  0.043 0 0  0.044 0 0  0.045 0 0  0.04600000000000001 0 0  0.047 0 0  0.04800000000000001 0 0  0.049 0 0  0.05 0 0  0.051 0 0  0.052 0 0  0.05300000000000001 0 0  0.05400000000000001 0 0  0.055 0 0  0.05600000000000001 0 0  0.057 0 0  0.05800000000000001 0 0  0.059 0 0  0.06 0 0  0.06100000000000001 0 0  0.062 0 0  0.063 0 0  0.064 0 0  0.065 0 0  0.066 0 0  0.067 0 0  0.068 0 0  0.06900000000000001 0 0  0.07000000000000001 0 0  0.07100000000000001 0 0  0.07200000000000001 0 0  0.07300000000000001 0 0  0.07400000000000001 0 0  0.075 0 0  0.07600000000000001 0 0  0.077 0 0  0.07800000000000001 0 0  0.079 0 0  0.08 0 0  0.081 0 0  0.08200000000000002 0 0  0.083 0 0  0.08400000000000001 0 0  0.08500000000000001 0 0  0.08599999999999999 0 0  0.08700000000000001 0 0  0.08800000000000001 0 0  0.08900000000000001 0 0  0.09 0 0  0.091 0 0  0.09200000000000001 0 0  0.09300000000000001 0 0  0.094 0 0  0.095 0 0  0.09600000000000002 0 0  0.09700000000000002 0 0  0.098 0 0  0.099 0 0  0.1 0 0  </DataArray>
</Points>
<Cells>
<DataArray  type="UInt32"  Name="connectivity"  format="ascii">0 1  1 2  2 3  3 4  4 5  5 6  6 7  7 8  8 9  9 10  10 11  11 12  12 13  13 14  14 15  15 16  16 17  17 18  18 19  19 20  20 21  21 22  22 23  23 24  24 25  25 26  26 27  27 28  28 29  29 30  30 31  31 32  32 33  33 34  34 35  35 36  36 37  37 38  38 39  39 40  40 41  41 42  42 43  43 44  44 45  45 46  46 47  47 48  48 49  49 50  50 51  51 52  52 53  53 54  54 55  55 56  56 57  57 58  58 59  59 60  60 61  61 62  62 63  63 64  64 65  65 66  66 67  67 68  68 69  69 70  70 71  71 72  72 73  73 74  74 75  75 76  76 77  77 78  78 79  79 80  80 81  81 82  82 83  83 84  84 85  85 86  86 87  87 88  88 89  89 90  90 91  91 92  92 93  93 94  94 95  95 96  96 97  97 98  98 99  99 100  </DataArray>
<DataArray  type="UInt32"  Name="offsets"  format="ascii">2 4 6 8 10 12 14 16 18 20 22 24 26 28 30 32 34 36 38 40 42 44 46 48 50 52 54 56 58 60 62 64 66 68 70 72 74 76 78 80 82 84 86 88 90 92 94 96 98 100 102 104 106 108 110 112 114 116 118 120 122 124 126 128 130 132 134 136 138 140 142 144 146 148 150 152 154 156 158 160 162 164 166 168 170 172 174 176 178 180 182 184 186 188 190 192 194 196 198 200 </DataArray>
<DataArray  type="UInt8"  Name="types"  format="ascii">3 3 3 3 3 3 3 3 3 3 3 3 3 3 3 3 3 3 3 3 3 3 3 3 3 3 3 3 3 3 3 3 3 3 3 3 3 3 3 3 3 3 3 3 3 3 3 3 3 3 3 3 3 3 3 3 3 3 3 3 3 3 3 3 3 3 3 3 3 3 3 3 3 3 3 3 3 3 3 3 3 3 3 3 3 3 3 3 3 3 3 3 3 3 3 3 3 3 3 3 </DataArray>
</Cells>
<PointData  Scalars="f_14"> 
<DataArray  type="Float64"  Name="f_14"  format="ascii">1.0214165414343809e-05  1.0443103604334926e-05  1.1138346172999916e-05  1.2325412488968119e-05  1.4047623493210172e-05  1.6367298992919407e-05  1.9367462506372179e-05  2.3154082346990150e-05  2.7858885898081994e-05  3.3642792322575382e-05  4.0700017258438853e-05  4.9262911340947040e-05  5.9607602622174662e-05  7.2060521062787560e-05  8.7005891167858378e-05  1.0489428642151552e-04  1.2625234631542283e-04  1.5169376330891098e-04  1.8193165282343897e-04  2.1779242415367149e-04  2.6023127373792744e-04  3.1034942431226818e-04  3.6941323379079631e-04  4.3887529596348471e-04  5.2039765095686721e-04  6.1587721652262321e-04  7.2747354125586876e-04  8.5763896744794899e-04  1.0091512741023758e-03  1.1851488493565508e-03  1.3891684158503193e-03  1.6251853021957440e-03  1.8976562184099919e-03  2.2115644528161635e-03  2.5724673624120827e-03  2.9865459780616522e-03  3.4606564901883134e-03  4.0023833201748389e-03  4.6200934177584056e-03  5.3229913558580835e-03  6.1211747221400622e-03  7.0256892320314868e-03  8.0485829118197884e-03  9.2029586240722598e-03  1.0503024132194895e-02  1.1964138827996424e-02  1.3602856177253307e-02  1.5436960875235762e-02  1.7485499648817106e-02  1.9768804596085470e-02  2.2308507920304907e-02  2.5127546894624746e-02  2.8250157889086271e-02  3.1701858304105386e-02  3.5509415286478524e-02  3.9700800156636108e-02  4.4305127550685088e-02  4.9352578378773659e-02  5.4874305823168185e-02  6.0902323745430725e-02  6.7469377042076506e-02  7.4608793681405300e-02  8.2354318369681212e-02  9.0739928030751399e-02  9.9799629537265386e-02  1.0956724040105509e-01  1.2007615341155956e-01  1.3135908650053307e-01  1.4344781940427054e-01  1.5637291898641398e-01  1.7016345536991023e-01  1.8484671130045319e-01  2.0044788742016645e-01  2.1698980636372342e-01  2.3449261879396707e-01  2.5297351466497503e-01  2.7244644313233590e-01  2.9292184461849097e-01  3.1440639858131630e-01  3.3690279052321925e-01  3.6040950171341340e-01  3.8492062497593249e-01  4.1042570971975495e-01  4.3690963915541364e-01  4.6435254235616524e-01  4.9272974348370346e-01  5.2201175011223733e-01  5.5216428215519675e-01  5.8314834243165092e-01  6.1492032941141594e-01  6.4743219215620906e-01  6.8063162693732326e-01  7.1446231446677655e-01  7.4886419613784783e-01  7.8377378714151269e-01  8.1912452381681033e-01  8.5484714211456581e-01  8.9087008361380204e-01  9.2711992513654662e-01  9.6352182766685557e-01  1.0000000000000000e+00  </DataArray> 
</PointData> 
</Piece>
</UnstructuredGrid>
</VTKFile>