<?xml version="1.0"?>
<VTKFile type="UnstructuredGrid"  version="0.1"  >
<UnstructuredGrid>
<Piece  NumberOfPoints="101" NumberOfCells="100">
<Points>
<DataArray  type="Float64"  NumberOfComponents="3"  format="ascii">0 0 0  0.001 0 0  0.002 0 0  0.003 0 0  0.004 0 0  0.005 0 0  0.006000000000000001 0 0  0.007000000000000001 0 0  0.008 0 0  0.009000000000000001 0 0  0.01 0 0  0.011 0 0  0.012 0 0  0.013 0 0  0.014 0 0  0.015 0 0  0.016 0 0  0.017 0 0  0.018 0 0  0.019 0 0  0.02 0 0  0.021 0 0  0.022 0 0  0.023 0 0  0.024 0 0  0.025 0 0  0.026 0 0  0.027 0 0  0.028 0 0  0.029 0 0  0.03 0 0  0.031 0 0  0.032 0 0  0.033 0 0  0.034 0 0  0.035 0 0  0.036 0 0  0.03700000000000001 0 0  0.03800000000000001 0 0  0.03900000000000001 0 0  0.04 0 0  0.04100000000000001 0 0  0.042 0 0  0.043 0 0  0.044 0 0  0.045 0 0  0.04600000000000001 0 0  0.047 0 0  0.04800000000000001 0 0  0.049 0 0  0.05 0 0  0.051 0 0  0.052 0 0  0.05300000000000001 0 0  0.05400000000000001 0 0  0.055 0 0  0.05600000000000001 0 0  0.057 0 0  0.05800000000000001 0 0  0.059 0 0  0.06 0 0  0.06100000000000001 0 0  0.062 0 0  0.063 0 0  0.064 0 0  0.065 0 0  0.066 0 0  0.067 0 0  0.068 0 0  0.06900000000000001 0 0  0.07000000000000001 0 0  0.07100000000000001 0 0  0.07200000000000001 0 0  0.07300000000000001 0 0  0.07400000000000001 0 0  0.075 0 0  0.07600000000000001 0 0  0.077 0 0  0.07800000000000001 0 0  0.079 0 0  0.08 0 0  0.081 0 0  0.08200000000000002 0 0  0.083 0 0  0.08400000000000001 0 0  0.08500000000000001 0 0  0.08599999999999999 0 0  0.08700000000000001 0 0  0.08800000000000001 0 0  0.08900000000000001 0 0  0.09 0 0  0.091 0 0  0.09200000000000001 0 0  0.09300000000000001 0 0  0.094 0 0  0.095 0 0  0.09600000000000002 0 0  0.09700000000000002 0 0  0.098 0 0  0.099 0 0  0.1 0 0  </DataArray>
</Points>
<Cells>
<DataArray  type="UInt32"  Name="connectivity"  format="ascii">0 1  1 2  2 3  3 4  4 5  5 6  6 7  7 8  8 9  9 10  10 11  11 12  12 13  13 14  14 15  15 16  16 17  17 18  18 19  19 20  20 21  21 22  22 23  23 24  24 25  25 26  26 27  27 28  28 29  29 30  30 31  31 32  32 33  33 34  34 35  35 36  36 37  37 38  38 39  39 40  40 41  41 42  42 43  43 44  44 45  45 46  46 47  47 48  48 49  49 50  50 51  51 52  52 53  53 54  54 55  55 56  56 57  57 58  58 59  59 60  60 61  61 62  62 63  63 64  64 65  65 66  66 67  67 68  68 69  69 70  70 71  71 72  72 73  73 74  74 75  75 76  76 77  77 78  78 79  79 80  80 81  81 82  82 83  83 84  84 85  85 86  86 87  87 88  88 89  89 90  90 91  91 92  92 93  93 94  94 95  95 96  96 97  97 98  98 99  99 100  </DataArray>
<DataArray  type="UInt32"  Name="offsets"  format="ascii">2 4 6 8 10 12 14 16 18 20 22 24 26 28 30 32 34 36 38 40 42 44 46 48 50 52 54 56 58 60 62 64 66 68 70 72 74 76 78 80 82 84 86 88 90 92 94 96 98 100 102 104 106 108 110 112 114 116 118 120 122 124 126 128 130 132 134 136 138 140 142 144 146 148 150 152 154 156 158 160 162 164 166 168 170 172 174 176 178 180 182 184 186 188 190 192 194 196 198 200 </DataArray>
<DataArray  type="UInt8"  Name="types"  format="ascii">3 3 3 3 3 3 3 3 3 3 3 3 3 3 3 3 3 3 3 3 3 3 3 3 3 3 3 3 3 3 3 3 3 3 3 3 3 3 3 3 3 3 3 3 3 3 3 3 3 3 3 3 3 3 3 3 3 3 3 3 3 3 3 3 3 3 3 3 3 3 3 3 3 3 3 3 3 3 3 3 3 3 3 3 3 3 3 3 3 3 3 3 3 3 3 3 3 3 3 3 </DataArray>
</Cells>
<PointData  Scalars="f_14"> 
<DataArray  type="Float64"  Name="f_14"  format="ascii">8.9489895578438033e-04  9.0216029774206608e-04  9.2402764866628779e-04  9.6075146526872050e-04  1.0127507788705193e-03  1.0806155945403042e-03  1.1651102376682007e-03  1.2671776355482978e-03  1.3879445176969191e-03  1.5287275145749806e-03  1.6910401300689935e-03  1.8766005584807774e-03  2.0873403118495575e-03  2.3254136181564190e-03  2.5932075453211109e-03  2.8933527998830704e-03  3.2287351428582269e-03  3.6025073584847627e-03  4.0181017044278386e-03  4.4792427645276040e-03  4.9899606173789213e-03  5.5546042259674005e-03  6.1778549453069967e-03  6.8647400365926727e-03  7.6206460678705512e-03  8.4513320727213591e-03  9.3629423300441560e-03  1.0362018619819443e-02  1.1455511801835822e-02  1.2650792556902610e-02  1.3955661123169549e-02  1.5378355853967995e-02  1.6927560418213642e-02  1.8612409460012046e-02  2.0442492530827201e-02  2.2427856105555890e-02  2.4579003493236825e-02  2.6906892454053453e-02  2.9422930336893010e-02  3.2138966556127177e-02  3.5067282232593533e-02  3.8220576832081958e-02  4.1611951645050438e-02  4.5254889963878608e-02  4.9163233828757112e-02  5.3351157230337239e-02  5.7833135676522492e-02  6.2623912052247058e-02  6.7738458724706921e-02  7.3191935872193997e-02  7.8999646042333838e-02  8.5176984974982634e-02  9.1739388756143000e-02  9.8702277401788524e-02  1.0608099500422004e-01  1.1389074660824190e-01  1.2214653201975371e-01  1.3086307678498019e-01  1.4005476061417668e-01  1.4973554355887192e-01  1.5991889028619019e-01  1.7061769282710665e-01  1.8184419220726955e-01  1.9360989939883655e-01  2.0592551605922935e-01  2.1880085554742051e-01  2.3224476472992531e-01  2.4626504710672481e-01  2.6086838780154548e-01  2.7606028097093549e-01  2.9184496019213851e-01  3.0822533239061212e-01  3.2520291586396788e-01  3.4277778294997241e-01  3.6094850787192201e-01  3.7971212027515683e-01  3.9906406494370039e-01  4.1899816815606217e-01  4.3950661110428302e-01  4.6057991076045007e-01  4.8220690853050879e-01  5.0437476698644601e-01  5.2706897491528493e-01  5.5027336086714596e-01  5.7397011532543218e-01  5.9813982156044021e-01  6.2276149516401014e-01  6.4781263219773055e-01  6.7326926582137525e-01  6.9910603120231107e-01  7.2529623844118141e-01  7.5181195318498595e-01  7.7862408453631826e-01  8.0570247980771170e-01  8.3301602561334109e-01  8.6053275473740110e-01  8.8821995816984611e-01  9.1604430165640427e-01  9.4397194607130541e-01  9.7196867088843508e-01  1.0000000000000000e+00  </DataArray> 
</PointData> 
</Piece>
</UnstructuredGrid>
</VTKFile>