<?xml version="1.0"?>
<VTKFile type="UnstructuredGrid"  version="0.1"  >
<UnstructuredGrid>
<Piece  NumberOfPoints="101" NumberOfCells="100">
<Points>
<DataArray  type="Float64"  NumberOfComponents="3"  format="ascii">0 0 0  0.001 0 0  0.002 0 0  0.003 0 0  0.004 0 0  0.005 0 0  0.006000000000000001 0 0  0.007000000000000001 0 0  0.008 0 0  0.009000000000000001 0 0  0.01 0 0  0.011 0 0  0.012 0 0  0.013 0 0  0.014 0 0  0.015 0 0  0.016 0 0  0.017 0 0  0.018 0 0  0.019 0 0  0.02 0 0  0.021 0 0  0.022 0 0  0.023 0 0  0.024 0 0  0.025 0 0  0.026 0 0  0.027 0 0  0.028 0 0  0.029 0 0  0.03 0 0  0.031 0 0  0.032 0 0  0.033 0 0  0.034 0 0  0.035 0 0  0.036 0 0  0.03700000000000001 0 0  0.03800000000000001 0 0  0.03900000000000001 0 0  0.04 0 0  0.04100000000000001 0 0  0.042 0 0  0.043 0 0  0.044 0 0  0.045 0 0  0.04600000000000001 0 0  0.047 0 0  0.04800000000000001 0 0  0.049 0 0  0.05 0 0  0.051 0 0  0.052 0 0  0.05300000000000001 0 0  0.05400000000000001 0 0  0.055 0 0  0.05600000000000001 0 0  0.057 0 0  0.05800000000000001 0 0  0.059 0 0  0.06 0 0  0.06100000000000001 0 0  0.062 0 0  0.063 0 0  0.064 0 0  0.065 0 0  0.066 0 0  0.067 0 0  0.068 0 0  0.06900000000000001 0 0  0.07000000000000001 0 0  0.07100000000000001 0 0  0.07200000000000001 0 0  0.07300000000000001 0 0  0.07400000000000001 0 0  0.075 0 0  0.07600000000000001 0 0  0.077 0 0  0.07800000000000001 0 0  0.079 0 0  0.08 0 0  0.081 0 0  0.08200000000000002 0 0  0.083 0 0  0.08400000000000001 0 0  0.08500000000000001 0 0  0.08599999999999999 0 0  0.08700000000000001 0 0  0.08800000000000001 0 0  0.08900000000000001 0 0  0.09 0 0  0.091 0 0  0.09200000000000001 0 0  0.09300000000000001 0 0  0.094 0 0  0.095 0 0  0.09600000000000002 0 0  0.09700000000000002 0 0  0.098 0 0  0.099 0 0  0.1 0 0  </DataArray>
</Points>
<Cells>
<DataArray  type="UInt32"  Name="connectivity"  format="ascii">0 1  1 2  2 3  3 4  4 5  5 6  6 7  7 8  8 9  9 10  10 11  11 12  12 13  13 14  14 15  15 16  16 17  17 18  18 19  19 20  20 21  21 22  22 23  23 24  24 25  25 26  26 27  27 28  28 29  29 30  30 31  31 32  32 33  33 34  34 35  35 36  36 37  37 38  38 39  39 40  40 41  41 42  42 43  43 44  44 45  45 46  46 47  47 48  48 49  49 50  50 51  51 52  52 53  53 54  54 55  55 56  56 57  57 58  58 59  59 60  60 61  61 62  62 63  63 64  64 65  65 66  66 67  67 68  68 69  69 70  70 71  71 72  72 73  73 74  74 75  75 76  76 77  77 78  78 79  79 80  80 81  81 82  82 83  83 84  84 85  85 86  86 87  87 88  88 89  89 90  90 91  91 92  92 93  93 94  94 95  95 96  96 97  97 98  98 99  99 100  </DataArray>
<DataArray  type="UInt32"  Name="offsets"  format="ascii">2 4 6 8 10 12 14 16 18 20 22 24 26 28 30 32 34 36 38 40 42 44 46 48 50 52 54 56 58 60 62 64 66 68 70 72 74 76 78 80 82 84 86 88 90 92 94 96 98 100 102 104 106 108 110 112 114 116 118 120 122 124 126 128 130 132 134 136 138 140 142 144 146 148 150 152 154 156 158 160 162 164 166 168 170 172 174 176 178 180 182 184 186 188 190 192 194 196 198 200 </DataArray>
<DataArray  type="UInt8"  Name="types"  format="ascii">3 3 3 3 3 3 3 3 3 3 3 3 3 3 3 3 3 3 3 3 3 3 3 3 3 3 3 3 3 3 3 3 3 3 3 3 3 3 3 3 3 3 3 3 3 3 3 3 3 3 3 3 3 3 3 3 3 3 3 3 3 3 3 3 3 3 3 3 3 3 3 3 3 3 3 3 3 3 3 3 3 3 3 3 3 3 3 3 3 3 3 3 3 3 3 3 3 3 3 3 </DataArray>
</Cells>
<PointData  Scalars="f_14"> 
<DataArray  type="Float64"  Name="f_14"  format="ascii">6.9903674492530117e-24  1.0135308970659342e-23  2.2314992717244919e-23  5.4083102138349452e-23  1.3265189760090914e-22  3.2443749457882914e-22  7.8932366939555990e-22  1.9093891328738443e-21  4.5919359177826913e-21  1.0978115625784925e-20  2.6089285527672710e-20  6.1627005078472318e-20  1.4468594600786613e-19  3.3759788483775677e-19  7.8282122320738399e-19  1.8037907007927521e-18  4.1299167665969384e-18  9.3950423083154387e-18  2.1233858123821378e-17  4.7676242847157455e-17  1.0633789507683125e-16  2.3558996120002118e-16  5.1841520723272725e-16  1.1329748051450850e-15  2.4589713840111352e-15  5.2996396689533491e-15  1.1341424654539358e-14  2.4098269966589739e-14  5.0835783094143074e-14  1.0646009019383487e-13  2.2131248577602332e-13  4.5666187973218241e-13  9.3523601721637209e-13  1.9008728297721905e-12  3.8340514889771114e-12  7.6736757093045104e-12  1.5239021743923376e-11  3.0025231070781947e-11  5.8689268931789153e-11  1.1379981397183345e-10  2.1887812758194796e-10  4.1755012455349769e-10  7.9000136571646698e-10  1.4822711125284790e-09  2.7578823225415877e-09  5.0879159649380442e-09  9.3065393797935003e-09  1.6876747660618772e-08  3.0339603834816537e-08  5.4065505251613718e-08  9.5496775434854965e-08  1.6718003122973601e-07  2.9005266469707297e-07  4.9869609147685837e-07  8.4963425493796007e-07  1.4342859959061371e-06  2.3989347995159296e-06  3.9751347970942479e-06  6.5254186506204024e-06  1.0611114835214275e-05  1.7091629234624267e-05  2.7267804200052436e-05  4.3086018711302514e-05  6.7424565916371446e-05  1.0448948016135540e-04  1.6035319011165343e-04  2.4367576364663077e-04  3.6665445424712896e-04  5.4625183267800802e-04  8.0575474068810666e-04  1.1767140612224296e-03  1.7013070217858535e-03  2.4351474543617161e-03  3.4505432202687537e-03  4.8401623424102124e-03  6.7210195058195320e-03  9.2386329330298202e-03  1.2571130312963075e-02  1.6933005598823259e-02  2.2578152492201381e-02  2.9801733924895140e-02  3.8940400306018794e-02  5.0370354230763671e-02  6.4502787075062046e-02  8.1776292976855444e-02  1.0264600408761461e-01  1.2756938822557767e-01  1.5698889982567890e-01  1.9131196321937791e-01  2.3088907189627839e-01  2.7599108002547046e-01  3.2678701047403824e-01  3.8332387343385343e-01  4.4551005159125456e-01  5.1310373945929011e-01  5.8570771582058356e-01  6.6277138373779321e-01  7.4360055275648784e-01  8.2737489827162181e-01  9.1317246104261185e-01  1.0000000000000000e+00  </DataArray> 
</PointData> 
</Piece>
</UnstructuredGrid>
</VTKFile>