<?xml version="1.0"?>
<VTKFile type="UnstructuredGrid"  version="0.1"  >
<UnstructuredGrid>
<Piece  NumberOfPoints="101" NumberOfCells="100">
<Points>
<DataArray  type="Float64"  NumberOfComponents="3"  format="ascii">0 0 0  0.001 0 0  0.002 0 0  0.003 0 0  0.004 0 0  0.005 0 0  0.006000000000000001 0 0  0.007000000000000001 0 0  0.008 0 0  0.009000000000000001 0 0  0.01 0 0  0.011 0 0  0.012 0 0  0.013 0 0  0.014 0 0  0.015 0 0  0.016 0 0  0.017 0 0  0.018 0 0  0.019 0 0  0.02 0 0  0.021 0 0  0.022 0 0  0.023 0 0  0.024 0 0  0.025 0 0  0.026 0 0  0.027 0 0  0.028 0 0  0.029 0 0  0.03 0 0  0.031 0 0  0.032 0 0  0.033 0 0  0.034 0 0  0.035 0 0  0.036 0 0  0.03700000000000001 0 0  0.03800000000000001 0 0  0.03900000000000001 0 0  0.04 0 0  0.04100000000000001 0 0  0.042 0 0  0.043 0 0  0.044 0 0  0.045 0 0  0.04600000000000001 0 0  0.047 0 0  0.04800000000000001 0 0  0.049 0 0  0.05 0 0  0.051 0 0  0.052 0 0  0.05300000000000001 0 0  0.05400000000000001 0 0  0.055 0 0  0.05600000000000001 0 0  0.057 0 0  0.05800000000000001 0 0  0.059 0 0  0.06 0 0  0.06100000000000001 0 0  0.062 0 0  0.063 0 0  0.064 0 0  0.065 0 0  0.066 0 0  0.067 0 0  0.068 0 0  0.06900000000000001 0 0  0.07000000000000001 0 0  0.07100000000000001 0 0  0.07200000000000001 0 0  0.07300000000000001 0 0  0.07400000000000001 0 0  0.075 0 0  0.07600000000000001 0 0  0.077 0 0  0.07800000000000001 0 0  0.079 0 0  0.08 0 0  0.081 0 0  0.08200000000000002 0 0  0.083 0 0  0.08400000000000001 0 0  0.08500000000000001 0 0  0.08599999999999999 0 0  0.08700000000000001 0 0  0.08800000000000001 0 0  0.08900000000000001 0 0  0.09 0 0  0.091 0 0  0.09200000000000001 0 0  0.09300000000000001 0 0  0.094 0 0  0.095 0 0  0.09600000000000002 0 0  0.09700000000000002 0 0  0.098 0 0  0.099 0 0  0.1 0 0  </DataArray>
</Points>
<Cells>
<DataArray  type="UInt32"  Name="connectivity"  format="ascii">0 1  1 2  2 3  3 4  4 5  5 6  6 7  7 8  8 9  9 10  10 11  11 12  12 13  13 14  14 15  15 16  16 17  17 18  18 19  19 20  20 21  21 22  22 23  23 24  24 25  25 26  26 27  27 28  28 29  29 30  30 31  31 32  32 33  33 34  34 35  35 36  36 37  37 38  38 39  39 40  40 41  41 42  42 43  43 44  44 45  45 46  46 47  47 48  48 49  49 50  50 51  51 52  52 53  53 54  54 55  55 56  56 57  57 58  58 59  59 60  60 61  61 62  62 63  63 64  64 65  65 66  66 67  67 68  68 69  69 70  70 71  71 72  72 73  73 74  74 75  75 76  76 77  77 78  78 79  79 80  80 81  81 82  82 83  83 84  84 85  85 86  86 87  87 88  88 89  89 90  90 91  91 92  92 93  93 94  94 95  95 96  96 97  97 98  98 99  99 100  </DataArray>
<DataArray  type="UInt32"  Name="offsets"  format="ascii">2 4 6 8 10 12 14 16 18 20 22 24 26 28 30 32 34 36 38 40 42 44 46 48 50 52 54 56 58 60 62 64 66 68 70 72 74 76 78 80 82 84 86 88 90 92 94 96 98 100 102 104 106 108 110 112 114 116 118 120 122 124 126 128 130 132 134 136 138 140 142 144 146 148 150 152 154 156 158 160 162 164 166 168 170 172 174 176 178 180 182 184 186 188 190 192 194 196 198 200 </DataArray>
<DataArray  type="UInt8"  Name="types"  format="ascii">3 3 3 3 3 3 3 3 3 3 3 3 3 3 3 3 3 3 3 3 3 3 3 3 3 3 3 3 3 3 3 3 3 3 3 3 3 3 3 3 3 3 3 3 3 3 3 3 3 3 3 3 3 3 3 3 3 3 3 3 3 3 3 3 3 3 3 3 3 3 3 3 3 3 3 3 3 3 3 3 3 3 3 3 3 3 3 3 3 3 3 3 3 3 3 3 3 3 3 3 </DataArray>
</Cells>
<PointData  Scalars="f_14"> 
<DataArray  type="Float64"  Name="f_14"  format="ascii">1.0654551849130277e-04  1.0803754046465637e-04  1.1254598381537148e-04  1.2016845022850037e-04  1.3106917621266454e-04  1.4548139196801665e-04  1.6371064026723050e-04  1.8613907141898147e-04  2.1323073440603755e-04  2.4553788788231833e-04  2.8370835777539332e-04  3.2849397067118721e-04  3.8076009385254895e-04  4.4149631371754770e-04  5.1182828421043934e-04  5.9303077575126686e-04  6.8654195284261062e-04  7.9397890495941945e-04  9.1715445038875743e-04  1.0580952262843947e-03  1.2190610702473145e-03  1.4025656891577954e-03  1.6113985997001875e-03  1.8486483119852105e-03  2.1177267128517012e-03  2.4223945888064372e-03  2.7667882101472018e-03  3.1554468776482649e-03  3.5933413113370793e-03  4.0859027374577153e-03  4.6390525048383008e-03  5.2592320357330207e-03  5.9534328890113019e-03  6.7292266855776507e-03  7.5947946174275451e-03  8.5589562331249563e-03  9.6311971641141018e-03  1.0821695428583128e-02  1.2141345923049976e-02  1.3601782686946170e-02  1.5215398502768662e-02  1.6995361374414788e-02  1.8955627409690264e-02  2.1110949620276900e-02  2.3476882144254672e-02  2.6069779393179140e-02  2.8906789628282002e-02  3.2005842479122922e-02  3.5385629933469873e-02  3.9065580349749919e-02  4.3065825073469420e-02  4.7407157276826019e-02  5.2110982686527349e-02  5.7199261918669086e-02  6.2694444201386063e-02  6.8619392335711751e-02  7.4997298822379002e-02  8.1851593166731629e-02  8.9205840464925024e-02  9.7083631471440043e-02  1.0550846444976776e-01  1.1450361921391260e-01  1.2409202387698176e-01  1.3429611493329541e-01  1.4513769141077906e-01  1.5663776393941592e-01  1.6881639968766010e-01  1.8169256422033492e-01  1.9528396142700058e-01  2.0960687275740444e-01  2.2467599707878327e-01  2.4050429253686287e-01  2.5710282185688071e-01  2.7448060256141910e-01  2.9264446360700502e-01  3.1159890995019590e-01  3.3134599654530067e-01  3.5188521324928201e-01  3.7321338206430293e-01  3.9532456808456118e-01  4.1821000543165004e-01  4.4185803936194618e-01  4.6625408561118886e-01  4.9138060790633253e-01  5.1721711442420071e-01  5.4374017381188211e-01  5.7092345120698529e-01  5.9873776450875105e-01  6.2715116095582790e-01  6.5612901386564937e-01  6.8563413918626959e-01  7.1562693130693777e-01  7.4606551737125426e-01  7.7690592913922185e-01  8.0810229125456590e-01  8.3960702459399139e-01  8.7137106320811253e-01  9.0334408321200543e-01  9.3547474184884971e-01  9.6771092483493082e-01  1.0000000000000000e+00  </DataArray> 
</PointData> 
</Piece>
</UnstructuredGrid>
</VTKFile>