<?xml version="1.0"?>
<VTKFile type="UnstructuredGrid"  version="0.1"  >
<UnstructuredGrid>
<Piece  NumberOfPoints="101" NumberOfCells="100">
<Points>
<DataArray  type="Float64"  NumberOfComponents="3"  format="ascii">0 0 0  0.001 0 0  0.002 0 0  0.003 0 0  0.004 0 0  0.005 0 0  0.006000000000000001 0 0  0.007000000000000001 0 0  0.008 0 0  0.009000000000000001 0 0  0.01 0 0  0.011 0 0  0.012 0 0  0.013 0 0  0.014 0 0  0.015 0 0  0.016 0 0  0.017 0 0  0.018 0 0  0.019 0 0  0.02 0 0  0.021 0 0  0.022 0 0  0.023 0 0  0.024 0 0  0.025 0 0  0.026 0 0  0.027 0 0  0.028 0 0  0.029 0 0  0.03 0 0  0.031 0 0  0.032 0 0  0.033 0 0  0.034 0 0  0.035 0 0  0.036 0 0  0.03700000000000001 0 0  0.03800000000000001 0 0  0.03900000000000001 0 0  0.04 0 0  0.04100000000000001 0 0  0.042 0 0  0.043 0 0  0.044 0 0  0.045 0 0  0.04600000000000001 0 0  0.047 0 0  0.04800000000000001 0 0  0.049 0 0  0.05 0 0  0.051 0 0  0.052 0 0  0.05300000000000001 0 0  0.05400000000000001 0 0  0.055 0 0  0.05600000000000001 0 0  0.057 0 0  0.05800000000000001 0 0  0.059 0 0  0.06 0 0  0.06100000000000001 0 0  0.062 0 0  0.063 0 0  0.064 0 0  0.065 0 0  0.066 0 0  0.067 0 0  0.068 0 0  0.06900000000000001 0 0  0.07000000000000001 0 0  0.07100000000000001 0 0  0.07200000000000001 0 0  0.07300000000000001 0 0  0.07400000000000001 0 0  0.075 0 0  0.07600000000000001 0 0  0.077 0 0  0.07800000000000001 0 0  0.079 0 0  0.08 0 0  0.081 0 0  0.08200000000000002 0 0  0.083 0 0  0.08400000000000001 0 0  0.08500000000000001 0 0  0.08599999999999999 0 0  0.08700000000000001 0 0  0.08800000000000001 0 0  0.08900000000000001 0 0  0.09 0 0  0.091 0 0  0.09200000000000001 0 0  0.09300000000000001 0 0  0.094 0 0  0.095 0 0  0.09600000000000002 0 0  0.09700000000000002 0 0  0.098 0 0  0.099 0 0  0.1 0 0  </DataArray>
</Points>
<Cells>
<DataArray  type="UInt32"  Name="connectivity"  format="ascii">0 1  1 2  2 3  3 4  4 5  5 6  6 7  7 8  8 9  9 10  10 11  11 12  12 13  13 14  14 15  15 16  16 17  17 18  18 19  19 20  20 21  21 22  22 23  23 24  24 25  25 26  26 27  27 28  28 29  29 30  30 31  31 32  32 33  33 34  34 35  35 36  36 37  37 38  38 39  39 40  40 41  41 42  42 43  43 44  44 45  45 46  46 47  47 48  48 49  49 50  50 51  51 52  52 53  53 54  54 55  55 56  56 57  57 58  58 59  59 60  60 61  61 62  62 63  63 64  64 65  65 66  66 67  67 68  68 69  69 70  70 71  71 72  72 73  73 74  74 75  75 76  76 77  77 78  78 79  79 80  80 81  81 82  82 83  83 84  84 85  85 86  86 87  87 88  88 89  89 90  90 91  91 92  92 93  93 94  94 95  95 96  96 97  97 98  98 99  99 100  </DataArray>
<DataArray  type="UInt32"  Name="offsets"  format="ascii">2 4 6 8 10 12 14 16 18 20 22 24 26 28 30 32 34 36 38 40 42 44 46 48 50 52 54 56 58 60 62 64 66 68 70 72 74 76 78 80 82 84 86 88 90 92 94 96 98 100 102 104 106 108 110 112 114 116 118 120 122 124 126 128 130 132 134 136 138 140 142 144 146 148 150 152 154 156 158 160 162 164 166 168 170 172 174 176 178 180 182 184 186 188 190 192 194 196 198 200 </DataArray>
<DataArray  type="UInt8"  Name="types"  format="ascii">3 3 3 3 3 3 3 3 3 3 3 3 3 3 3 3 3 3 3 3 3 3 3 3 3 3 3 3 3 3 3 3 3 3 3 3 3 3 3 3 3 3 3 3 3 3 3 3 3 3 3 3 3 3 3 3 3 3 3 3 3 3 3 3 3 3 3 3 3 3 3 3 3 3 3 3 3 3 3 3 3 3 3 3 3 3 3 3 3 3 3 3 3 3 3 3 3 3 3 3 </DataArray>
</Cells>
<PointData  Scalars="f_14"> 
<DataArray  type="Float64"  Name="f_14"  format="ascii">2.9212304689619538e-06  3.0022217617954028e-06  3.2489643935967026e-06  3.6729031304133908e-06  4.2935777915438768e-06  5.1393334272055134e-06  6.2483394256957318e-06  7.6699427099022001e-06  9.4663877927020847e-06  1.1714944369560081e-05  1.4510491381872588e-05  1.7968615121657774e-05  2.2229287987687683e-05  2.7461203948127992e-05  3.3866856597546391e-05  4.1688455875197453e-05  5.1214789967906297e-05  6.2789149554996261e-05  7.6818442230653392e-05  9.3783635489419991e-05  1.1425167687098888e-04  1.3888904947549765e-04  1.6847712977881426e-04  2.0392952215046023e-04  2.4631155030878328e-04  2.9686208969572085e-04  3.5701792592898014e-04  4.2844082256336419e-04  5.1304747580019697e-04  6.1304252393096865e-04  7.3095476457666784e-04  8.6967671256974572e-04  1.0325076050116341e-03  1.2231999270411954e-03  1.4460094916294187e-03  1.7057490588013899e-03  2.0078454236971371e-03  2.3583998385544058e-03  2.7642515609082666e-03  3.2330442391053918e-03  3.7732947568742620e-03  4.3944640616508587e-03  5.1070293973566579e-03  5.9225572523580565e-03  6.8537762186873675e-03  7.9146488408625947e-03  9.1204414136989136e-03  1.0487790570558203e-02  1.2034765389030777e-02  1.3780923632853253e-02  1.5747360649958592e-02  1.7956749360144925e-02  2.0433369695316117e-02  2.3203125804046473e-02  2.6293549303832556e-02  2.9733786862220394e-02  3.3554570415279067e-02  3.7788168391608354e-02  4.2468316404832764e-02  4.7630126009471904e-02  5.3309970285750956e-02  5.9545345229172986e-02  6.6374706170612419e-02  7.3837278741509083e-02  8.1972844224718441e-02  9.0821499491994043e-02  1.0042339212018869e-01  1.1081843169529602e-01  1.2204597875062501e-01  1.3414451323596080e-01  1.4715128487088838e-01  1.6110194818913881e-01  1.7603018552282859e-01  1.9196732159630422e-01  2.0894193378920939e-01  2.2697946247754186e-01  2.4610182616022394e-01  2.6632704631785398e-01  2.8766888712133326e-01  3.1013651520331087e-01  3.3373418471851901e-01  3.5846095284493884e-01  3.8431043071302950e-01  4.1127057449320487e-01  4.3932352102268962e-01  4.6844547191400365e-01  4.9860662956296975e-01  5.2977118787056965e-01  5.6189737981851007e-01  5.9493758330316859e-01  6.2883848584841195e-01  6.6354130799799849e-01  6.9898208434728359e-01  7.3509200032715993e-01  7.7179778201645655e-01  8.0902213544850088e-01  8.4668423110910318e-01  8.8470022861220865e-01  9.2298383590020827e-01  9.6144689676152195e-01  1.0000000000000000e+00  </DataArray> 
</PointData> 
</Piece>
</UnstructuredGrid>
</VTKFile>