<?xml version="1.0"?>
<VTKFile type="UnstructuredGrid"  version="0.1"  >
<UnstructuredGrid>
<Piece  NumberOfPoints="101" NumberOfCells="100">
<Points>
<DataArray  type="Float64"  NumberOfComponents="3"  format="ascii">0 0 0  0.001 0 0  0.002 0 0  0.003 0 0  0.004 0 0  0.005 0 0  0.006000000000000001 0 0  0.007000000000000001 0 0  0.008 0 0  0.009000000000000001 0 0  0.01 0 0  0.011 0 0  0.012 0 0  0.013 0 0  0.014 0 0  0.015 0 0  0.016 0 0  0.017 0 0  0.018 0 0  0.019 0 0  0.02 0 0  0.021 0 0  0.022 0 0  0.023 0 0  0.024 0 0  0.025 0 0  0.026 0 0  0.027 0 0  0.028 0 0  0.029 0 0  0.03 0 0  0.031 0 0  0.032 0 0  0.033 0 0  0.034 0 0  0.035 0 0  0.036 0 0  0.03700000000000001 0 0  0.03800000000000001 0 0  0.03900000000000001 0 0  0.04 0 0  0.04100000000000001 0 0  0.042 0 0  0.043 0 0  0.044 0 0  0.045 0 0  0.04600000000000001 0 0  0.047 0 0  0.04800000000000001 0 0  0.049 0 0  0.05 0 0  0.051 0 0  0.052 0 0  0.05300000000000001 0 0  0.05400000000000001 0 0  0.055 0 0  0.05600000000000001 0 0  0.057 0 0  0.05800000000000001 0 0  0.059 0 0  0.06 0 0  0.06100000000000001 0 0  0.062 0 0  0.063 0 0  0.064 0 0  0.065 0 0  0.066 0 0  0.067 0 0  0.068 0 0  0.06900000000000001 0 0  0.07000000000000001 0 0  0.07100000000000001 0 0  0.07200000000000001 0 0  0.07300000000000001 0 0  0.07400000000000001 0 0  0.075 0 0  0.07600000000000001 0 0  0.077 0 0  0.07800000000000001 0 0  0.079 0 0  0.08 0 0  0.081 0 0  0.08200000000000002 0 0  0.083 0 0  0.08400000000000001 0 0  0.08500000000000001 0 0  0.08599999999999999 0 0  0.08700000000000001 0 0  0.08800000000000001 0 0  0.08900000000000001 0 0  0.09 0 0  0.091 0 0  0.09200000000000001 0 0  0.09300000000000001 0 0  0.094 0 0  0.095 0 0  0.09600000000000002 0 0  0.09700000000000002 0 0  0.098 0 0  0.099 0 0  0.1 0 0  </DataArray>
</Points>
<Cells>
<DataArray  type="UInt32"  Name="connectivity"  format="ascii">0 1  1 2  2 3  3 4  4 5  5 6  6 7  7 8  8 9  9 10  10 11  11 12  12 13  13 14  14 15  15 16  16 17  17 18  18 19  19 20  20 21  21 22  22 23  23 24  24 25  25 26  26 27  27 28  28 29  29 30  30 31  31 32  32 33  33 34  34 35  35 36  36 37  37 38  38 39  39 40  40 41  41 42  42 43  43 44  44 45  45 46  46 47  47 48  48 49  49 50  50 51  51 52  52 53  53 54  54 55  55 56  56 57  57 58  58 59  59 60  60 61  61 62  62 63  63 64  64 65  65 66  66 67  67 68  68 69  69 70  70 71  71 72  72 73  73 74  74 75  75 76  76 77  77 78  78 79  79 80  80 81  81 82  82 83  83 84  84 85  85 86  86 87  87 88  88 89  89 90  90 91  91 92  92 93  93 94  94 95  95 96  96 97  97 98  98 99  99 100  </DataArray>
<DataArray  type="UInt32"  Name="offsets"  format="ascii">2 4 6 8 10 12 14 16 18 20 22 24 26 28 30 32 34 36 38 40 42 44 46 48 50 52 54 56 58 60 62 64 66 68 70 72 74 76 78 80 82 84 86 88 90 92 94 96 98 100 102 104 106 108 110 112 114 116 118 120 122 124 126 128 130 132 134 136 138 140 142 144 146 148 150 152 154 156 158 160 162 164 166 168 170 172 174 176 178 180 182 184 186 188 190 192 194 196 198 200 </DataArray>
<DataArray  type="UInt8"  Name="types"  format="ascii">3 3 3 3 3 3 3 3 3 3 3 3 3 3 3 3 3 3 3 3 3 3 3 3 3 3 3 3 3 3 3 3 3 3 3 3 3 3 3 3 3 3 3 3 3 3 3 3 3 3 3 3 3 3 3 3 3 3 3 3 3 3 3 3 3 3 3 3 3 3 3 3 3 3 3 3 3 3 3 3 3 3 3 3 3 3 3 3 3 3 3 3 3 3 3 3 3 3 3 3 </DataArray>
</Cells>
<PointData  Scalars="f_14"> 
<DataArray  type="Float64"  Name="f_14"  format="ascii">2.2868358339911860e-04  2.3135897487428460e-04  2.3943236848349722e-04  2.5304594081093320e-04  2.7243838387999312e-04  2.9794750496849054e-04  3.3001387265721471e-04  3.6918551501426285e-04  4.1612367692687980e-04  4.7160964427160840e-04  5.3655264276974957e-04  6.1199881891787946e-04  6.9914130922467117e-04  7.9933140204107558e-04  9.1409079346090245e-04  1.0451249350181191e-03  1.1943374661472126e-03  1.3638457185428043e-03  1.5559972726023584e-03  1.7733875380196386e-03  2.0188783212869367e-03  2.2956173323448758e-03  2.6070585708889730e-03  2.9569835199182949e-03  3.3495230600280772e-03  3.7891800027602873e-03  4.2808521251103933e-03  4.8298555701451812e-03  5.4419484607395241e-03  6.1233545548392415e-03  6.8807867515781572e-03  7.7214702382219806e-03  8.6531650485075755e-03  9.6841877837475759e-03  1.0823432229354521e-02  1.2080388581507643e-02  1.3465160981860930e-02  1.4988483042812632e-02  1.6661731032280250e-02  1.8496934375515386e-02  2.0506783122623187e-02  2.2704632024494038e-02  2.5104500857179080e-02  2.7721070635706446e-02  3.0569675363278776e-02  3.3666288971036476e-02  3.7027507117397621e-02  4.0670523534640887e-02  4.4613100634089325e-02  4.8873534110117876e-02  5.3470611317348656e-02  5.8423563234820140e-02  6.3752009875585991e-02  6.9475899049973311e-02  7.5615438445407746e-02  8.2191021044995788e-02  8.9223143970559166e-02  9.6732320903073279e-02  1.0473898830391842e-01  1.1326340573335263e-01  1.2232555063745905e-01  1.3194500805068143e-01  1.4214085573709845e-01  1.5293154536885781e-01  1.6433478041372163e-01  1.7636739147446431e-01  1.8904520988985929e-01  2.0238294046916053e-01  2.1639403428828302e-01  2.3109056252529661e-01  2.4648309235439536e-01  2.6258056595026480e-01  2.7939018367790042e-01  2.9691729255567106e-01  3.1516528108112096e-01  3.3413548149913747e-01  3.5382708057028278e-01  3.7423703986304102e-01  3.9536002654740959e-01  4.1718835560867484e-01  4.3971194432970118e-01  4.6291827980793276e-01  4.8679240018026487e-01  5.1131689012565196e-01  5.3647189110278692e-01  5.6223512665942865e-01  5.8858194302226208e-01  6.1548536504284757e-01  6.4291616743774693e-01  6.7084296112090236e-01  6.9923229428532607e-01  7.2804876775093774e-01  7.5725516395757420e-01  7.8681258884855798e-01  8.1668062576239087e-01  8.4681750032978687e-01  8.7718025526191545e-01  9.0772493381484309e-01  9.3840677062606415e-01  9.6918038854285204e-01  1.0000000000000000e+00  </DataArray> 
</PointData> 
</Piece>
</UnstructuredGrid>
</VTKFile>