<?xml version="1.0"?>
<VTKFile type="UnstructuredGrid"  version="0.1"  >
<UnstructuredGrid>
<Piece  NumberOfPoints="101" NumberOfCells="100">
<Points>
<DataArray  type="Float64"  NumberOfComponents="3"  format="ascii">0 0 0  0.001 0 0  0.002 0 0  0.003 0 0  0.004 0 0  0.005 0 0  0.006000000000000001 0 0  0.007000000000000001 0 0  0.008 0 0  0.009000000000000001 0 0  0.01 0 0  0.011 0 0  0.012 0 0  0.013 0 0  0.014 0 0  0.015 0 0  0.016 0 0  0.017 0 0  0.018 0 0  0.019 0 0  0.02 0 0  0.021 0 0  0.022 0 0  0.023 0 0  0.024 0 0  0.025 0 0  0.026 0 0  0.027 0 0  0.028 0 0  0.029 0 0  0.03 0 0  0.031 0 0  0.032 0 0  0.033 0 0  0.034 0 0  0.035 0 0  0.036 0 0  0.03700000000000001 0 0  0.03800000000000001 0 0  0.03900000000000001 0 0  0.04 0 0  0.04100000000000001 0 0  0.042 0 0  0.043 0 0  0.044 0 0  0.045 0 0  0.04600000000000001 0 0  0.047 0 0  0.04800000000000001 0 0  0.049 0 0  0.05 0 0  0.051 0 0  0.052 0 0  0.05300000000000001 0 0  0.05400000000000001 0 0  0.055 0 0  0.05600000000000001 0 0  0.057 0 0  0.05800000000000001 0 0  0.059 0 0  0.06 0 0  0.06100000000000001 0 0  0.062 0 0  0.063 0 0  0.064 0 0  0.065 0 0  0.066 0 0  0.067 0 0  0.068 0 0  0.06900000000000001 0 0  0.07000000000000001 0 0  0.07100000000000001 0 0  0.07200000000000001 0 0  0.07300000000000001 0 0  0.07400000000000001 0 0  0.075 0 0  0.07600000000000001 0 0  0.077 0 0  0.07800000000000001 0 0  0.079 0 0  0.08 0 0  0.081 0 0  0.08200000000000002 0 0  0.083 0 0  0.08400000000000001 0 0  0.08500000000000001 0 0  0.08599999999999999 0 0  0.08700000000000001 0 0  0.08800000000000001 0 0  0.08900000000000001 0 0  0.09 0 0  0.091 0 0  0.09200000000000001 0 0  0.09300000000000001 0 0  0.094 0 0  0.095 0 0  0.09600000000000002 0 0  0.09700000000000002 0 0  0.098 0 0  0.099 0 0  0.1 0 0  </DataArray>
</Points>
<Cells>
<DataArray  type="UInt32"  Name="connectivity"  format="ascii">0 1  1 2  2 3  3 4  4 5  5 6  6 7  7 8  8 9  9 10  10 11  11 12  12 13  13 14  14 15  15 16  16 17  17 18  18 19  19 20  20 21  21 22  22 23  23 24  24 25  25 26  26 27  27 28  28 29  29 30  30 31  31 32  32 33  33 34  34 35  35 36  36 37  37 38  38 39  39 40  40 41  41 42  42 43  43 44  44 45  45 46  46 47  47 48  48 49  49 50  50 51  51 52  52 53  53 54  54 55  55 56  56 57  57 58  58 59  59 60  60 61  61 62  62 63  63 64  64 65  65 66  66 67  67 68  68 69  69 70  70 71  71 72  72 73  73 74  74 75  75 76  76 77  77 78  78 79  79 80  80 81  81 82  82 83  83 84  84 85  85 86  86 87  87 88  88 89  89 90  90 91  91 92  92 93  93 94  94 95  95 96  96 97  97 98  98 99  99 100  </DataArray>
<DataArray  type="UInt32"  Name="offsets"  format="ascii">2 4 6 8 10 12 14 16 18 20 22 24 26 28 30 32 34 36 38 40 42 44 46 48 50 52 54 56 58 60 62 64 66 68 70 72 74 76 78 80 82 84 86 88 90 92 94 96 98 100 102 104 106 108 110 112 114 116 118 120 122 124 126 128 130 132 134 136 138 140 142 144 146 148 150 152 154 156 158 160 162 164 166 168 170 172 174 176 178 180 182 184 186 188 190 192 194 196 198 200 </DataArray>
<DataArray  type="UInt8"  Name="types"  format="ascii">3 3 3 3 3 3 3 3 3 3 3 3 3 3 3 3 3 3 3 3 3 3 3 3 3 3 3 3 3 3 3 3 3 3 3 3 3 3 3 3 3 3 3 3 3 3 3 3 3 3 3 3 3 3 3 3 3 3 3 3 3 3 3 3 3 3 3 3 3 3 3 3 3 3 3 3 3 3 3 3 3 3 3 3 3 3 3 3 3 3 3 3 3 3 3 3 3 3 3 3 </DataArray>
</Cells>
<PointData  Scalars="f_14"> 
<DataArray  type="Float64"  Name="f_14"  format="ascii">1.2528749918707566e-06  1.2925145227322910e-06  1.4135639164589882e-06  1.6225079905688208e-06  1.9304657341681212e-06  2.3536669910482959e-06  2.9141404745380373e-06  3.6406341719528455e-06  4.5697957778640465e-06  5.7476477902567676e-06  7.2313993918339123e-06  9.0916452919514666e-06  1.1415010384131394e-05  1.4307308427750969e-05  1.7897293021935842e-05  2.2341089916523661e-05  2.7827411186897936e-05  3.4583663945837854e-05  4.2883079002483452e-05  5.3052998094094277e-05  6.5484471855110877e-05  8.0643334346089667e-05  9.9082933484587247e-05  1.2145870978472066e-04  1.4854482804293692e-04  1.8125307755956034e-04  2.2065426564599615e-04  2.6800233595455577e-04  3.2476144693308995e-04  3.9263624573782438e-04  4.7360556846571579e-04  5.6995978777516561e-04  6.8434201299881893e-04  8.1979332484338405e-04  9.7980219584905561e-04  1.1683582081007090e-03  1.3900101304530695e-03  1.6499283580458986e-03  1.9539716465559942e-03  2.3087579920312374e-03  2.7217394140467291e-03  3.2012802953221378e-03  3.7567388151312701e-03  4.3985508874301478e-03  5.1383158785968212e-03  5.9888832353775729e-03  6.9644390028512854e-03  8.0805910571773304e-03  9.3544517212539261e-03  1.0804716276297375e-02  1.2451735732308301e-02  1.4317582079361825e-02  1.6426104113947480e-02  1.8802971824775163e-02  2.1475707235350239e-02  2.4473699541102290e-02  2.7828202351816510e-02  3.1572310860312307e-02  3.5740916810203326e-02  4.0370639233174355e-02  4.5499729072952459e-02  5.1167946011678095e-02  5.7416406066441501e-02  6.4287398829990156e-02  7.1824173589478998e-02  8.0070693968747012e-02  8.9071361199639737e-02  9.8870706631574989e-02  1.0951305462956133e-01  1.2104215758143892e-01  1.3350080532600317e-01  1.4693041191435910e-01  1.6137058321564296e-01  1.7685866946248716e-01  1.9342930738793906e-01  2.1111395712019601e-01  2.2994043946063117e-01  2.4993247956054343e-01  2.7110926331993779e-01  2.9348501304541358e-01  3.1706858901346319e-01  3.4186312358123760e-01  3.6786569436255240e-01  3.9506704273818499e-01  4.2345134359476988e-01  4.5299603168694713e-01  4.8367168939705019e-01  5.1544199993257422e-01  5.4826376916404018e-01  5.8208701837754973e-01  6.1685514921270346e-01  6.5250518099552357e-01  6.8896805957718998e-01  7.2616903567407376e-01  7.6402810959488310e-01  8.0246053815945795e-01  8.4137739858343896e-01  8.8068620314562662e-01  9.2029155759099324e-01  9.6009585547093124e-01  1.0000000000000000e+00  </DataArray> 
</PointData> 
</Piece>
</UnstructuredGrid>
</VTKFile>