<?xml version="1.0"?>
<VTKFile type="UnstructuredGrid"  version="0.1"  >
<UnstructuredGrid>
<Piece  NumberOfPoints="101" NumberOfCells="100">
<Points>
<DataArray  type="Float64"  NumberOfComponents="3"  format="ascii">0 0 0  0.001 0 0  0.002 0 0  0.003 0 0  0.004 0 0  0.005 0 0  0.006000000000000001 0 0  0.007000000000000001 0 0  0.008 0 0  0.009000000000000001 0 0  0.01 0 0  0.011 0 0  0.012 0 0  0.013 0 0  0.014 0 0  0.015 0 0  0.016 0 0  0.017 0 0  0.018 0 0  0.019 0 0  0.02 0 0  0.021 0 0  0.022 0 0  0.023 0 0  0.024 0 0  0.025 0 0  0.026 0 0  0.027 0 0  0.028 0 0  0.029 0 0  0.03 0 0  0.031 0 0  0.032 0 0  0.033 0 0  0.034 0 0  0.035 0 0  0.036 0 0  0.03700000000000001 0 0  0.03800000000000001 0 0  0.03900000000000001 0 0  0.04 0 0  0.04100000000000001 0 0  0.042 0 0  0.043 0 0  0.044 0 0  0.045 0 0  0.04600000000000001 0 0  0.047 0 0  0.04800000000000001 0 0  0.049 0 0  0.05 0 0  0.051 0 0  0.052 0 0  0.05300000000000001 0 0  0.05400000000000001 0 0  0.055 0 0  0.05600000000000001 0 0  0.057 0 0  0.05800000000000001 0 0  0.059 0 0  0.06 0 0  0.06100000000000001 0 0  0.062 0 0  0.063 0 0  0.064 0 0  0.065 0 0  0.066 0 0  0.067 0 0  0.068 0 0  0.06900000000000001 0 0  0.07000000000000001 0 0  0.07100000000000001 0 0  0.07200000000000001 0 0  0.07300000000000001 0 0  0.07400000000000001 0 0  0.075 0 0  0.07600000000000001 0 0  0.077 0 0  0.07800000000000001 0 0  0.079 0 0  0.08 0 0  0.081 0 0  0.08200000000000002 0 0  0.083 0 0  0.08400000000000001 0 0  0.08500000000000001 0 0  0.08599999999999999 0 0  0.08700000000000001 0 0  0.08800000000000001 0 0  0.08900000000000001 0 0  0.09 0 0  0.091 0 0  0.09200000000000001 0 0  0.09300000000000001 0 0  0.094 0 0  0.095 0 0  0.09600000000000002 0 0  0.09700000000000002 0 0  0.098 0 0  0.099 0 0  0.1 0 0  </DataArray>
</Points>
<Cells>
<DataArray  type="UInt32"  Name="connectivity"  format="ascii">0 1  1 2  2 3  3 4  4 5  5 6  6 7  7 8  8 9  9 10  10 11  11 12  12 13  13 14  14 15  15 16  16 17  17 18  18 19  19 20  20 21  21 22  22 23  23 24  24 25  25 26  26 27  27 28  28 29  29 30  30 31  31 32  32 33  33 34  34 35  35 36  36 37  37 38  38 39  39 40  40 41  41 42  42 43  43 44  44 45  45 46  46 47  47 48  48 49  49 50  50 51  51 52  52 53  53 54  54 55  55 56  56 57  57 58  58 59  59 60  60 61  61 62  62 63  63 64  64 65  65 66  66 67  67 68  68 69  69 70  70 71  71 72  72 73  73 74  74 75  75 76  76 77  77 78  78 79  79 80  80 81  81 82  82 83  83 84  84 85  85 86  86 87  87 88  88 89  89 90  90 91  91 92  92 93  93 94  94 95  95 96  96 97  97 98  98 99  99 100  </DataArray>
<DataArray  type="UInt32"  Name="offsets"  format="ascii">2 4 6 8 10 12 14 16 18 20 22 24 26 28 30 32 34 36 38 40 42 44 46 48 50 52 54 56 58 60 62 64 66 68 70 72 74 76 78 80 82 84 86 88 90 92 94 96 98 100 102 104 106 108 110 112 114 116 118 120 122 124 126 128 130 132 134 136 138 140 142 144 146 148 150 152 154 156 158 160 162 164 166 168 170 172 174 176 178 180 182 184 186 188 190 192 194 196 198 200 </DataArray>
<DataArray  type="UInt8"  Name="types"  format="ascii">3 3 3 3 3 3 3 3 3 3 3 3 3 3 3 3 3 3 3 3 3 3 3 3 3 3 3 3 3 3 3 3 3 3 3 3 3 3 3 3 3 3 3 3 3 3 3 3 3 3 3 3 3 3 3 3 3 3 3 3 3 3 3 3 3 3 3 3 3 3 3 3 3 3 3 3 3 3 3 3 3 3 3 3 3 3 3 3 3 3 3 3 3 3 3 3 3 3 3 3 </DataArray>
</Cells>
<PointData  Scalars="f_14"> 
<DataArray  type="Float64"  Name="f_14"  format="ascii">8.1495543762992724e-09  8.6400091335645271e-09  1.0164023672233906e-08  1.2884470809489831e-08  1.7089597843793658e-08  2.3219589722357807e-08  3.1906592203365574e-08  4.4031234410441727e-08  6.0799860072387856e-08  8.3848088782294695e-08  1.1537805455268598e-07  1.5833879147178211e-07  2.1666185106439637e-07  2.9556745375159390e-07  4.0196042528759780e-07  5.4493999466370620e-07  7.3645339931220851e-07  9.9213034426496817e-07  1.3323439034119454e-06  1.7835536631962956e-06  2.3799990410622382e-06  3.1658250275948633e-06  4.1977393780374380e-06  5.5483197944685485e-06  7.3101121663327730e-06  9.6006867264167916e-06  1.2568848247708416e-05  1.6402229313503780e-05  2.1336532317915886e-05  2.7666726167473621e-05  3.5760547487345407e-05  4.6074703142587530e-05  5.9174220506070264e-05  7.5755443325882781e-05  9.6673223155466857e-05  1.2297290766263963e-04  1.5592777590900164e-04  1.9708261466477023e-04  2.4830416634539191e-04  3.1183920513920094e-04  3.9038100982471204e-04  4.8714499573459792e-04  6.0595424004275219e-04  7.5133557949098005e-04  9.2862687313073644e-04  1.1440958999133972e-03  1.4050711974610928e-03  1.7200849399056179e-03  2.0990276957347565e-03  2.5533145984708810e-03  3.0960621022634756e-03  3.7422740811534822e-03  4.5090355667425893e-03  5.4157119082867671e-03  6.4841505882563362e-03  7.7388823442331453e-03  9.2073176465273902e-03  1.0919933974858274e-02  1.2910448744483126e-02  1.5215972172612431e-02  1.7877133872569870e-02  2.0938176540663395e-02  2.4447009785218167e-02  2.8455216965372693e-02  3.3018007885436115e-02  3.8194110353881414e-02  4.4045593986924605e-02  5.0637620233922383e-02  5.8038113439340878e-02  6.6317348841455417e-02  7.5547454741565975e-02  8.5801827651383319e-02  9.7154461023315819e-02  1.0967919016205638e-01  1.2344885806979115e-01  1.3853440924567118e-01  1.5500392078815525e-01  1.7292158247386366e-01  1.9234663973979063e-01  2.1333231560370752e-01  2.3592472944492388e-01  2.6016183215907440e-01  2.8607237842449179e-01  3.1367495760817055e-01  3.4297710513968344e-01  3.7397451594670345e-01  4.0665038074550375e-01  4.4097486459973334e-01  4.7690474520484971e-01  5.1438322584678287e-01  5.5333993496389111e-01  5.9369112077226438e-01  6.3534004557458224e-01  6.7817758025643149e-01  7.2208299518844599e-01  7.6692493941465101e-01  8.1256259573950129e-01  8.5884699525232644e-01  9.0562247106937821e-01  9.5272822774429944e-01  1.0000000000000000e+00  </DataArray> 
</PointData> 
</Piece>
</UnstructuredGrid>
</VTKFile>