<?xml version="1.0"?>
<VTKFile type="UnstructuredGrid"  version="0.1"  >
<UnstructuredGrid>
<Piece  NumberOfPoints="101" NumberOfCells="100">
<Points>
<DataArray  type="Float64"  NumberOfComponents="3"  format="ascii">0 0 0  0.001 0 0  0.002 0 0  0.003 0 0  0.004 0 0  0.005 0 0  0.006000000000000001 0 0  0.007000000000000001 0 0  0.008 0 0  0.009000000000000001 0 0  0.01 0 0  0.011 0 0  0.012 0 0  0.013 0 0  0.014 0 0  0.015 0 0  0.016 0 0  0.017 0 0  0.018 0 0  0.019 0 0  0.02 0 0  0.021 0 0  0.022 0 0  0.023 0 0  0.024 0 0  0.025 0 0  0.026 0 0  0.027 0 0  0.028 0 0  0.029 0 0  0.03 0 0  0.031 0 0  0.032 0 0  0.033 0 0  0.034 0 0  0.035 0 0  0.036 0 0  0.03700000000000001 0 0  0.03800000000000001 0 0  0.03900000000000001 0 0  0.04 0 0  0.04100000000000001 0 0  0.042 0 0  0.043 0 0  0.044 0 0  0.045 0 0  0.04600000000000001 0 0  0.047 0 0  0.04800000000000001 0 0  0.049 0 0  0.05 0 0  0.051 0 0  0.052 0 0  0.05300000000000001 0 0  0.05400000000000001 0 0  0.055 0 0  0.05600000000000001 0 0  0.057 0 0  0.05800000000000001 0 0  0.059 0 0  0.06 0 0  0.06100000000000001 0 0  0.062 0 0  0.063 0 0  0.064 0 0  0.065 0 0  0.066 0 0  0.067 0 0  0.068 0 0  0.06900000000000001 0 0  0.07000000000000001 0 0  0.07100000000000001 0 0  0.07200000000000001 0 0  0.07300000000000001 0 0  0.07400000000000001 0 0  0.075 0 0  0.07600000000000001 0 0  0.077 0 0  0.07800000000000001 0 0  0.079 0 0  0.08 0 0  0.081 0 0  0.08200000000000002 0 0  0.083 0 0  0.08400000000000001 0 0  0.08500000000000001 0 0  0.08599999999999999 0 0  0.08700000000000001 0 0  0.08800000000000001 0 0  0.08900000000000001 0 0  0.09 0 0  0.091 0 0  0.09200000000000001 0 0  0.09300000000000001 0 0  0.094 0 0  0.095 0 0  0.09600000000000002 0 0  0.09700000000000002 0 0  0.098 0 0  0.099 0 0  0.1 0 0  </DataArray>
</Points>
<Cells>
<DataArray  type="UInt32"  Name="connectivity"  format="ascii">0 1  1 2  2 3  3 4  4 5  5 6  6 7  7 8  8 9  9 10  10 11  11 12  12 13  13 14  14 15  15 16  16 17  17 18  18 19  19 20  20 21  21 22  22 23  23 24  24 25  25 26  26 27  27 28  28 29  29 30  30 31  31 32  32 33  33 34  34 35  35 36  36 37  37 38  38 39  39 40  40 41  41 42  42 43  43 44  44 45  45 46  46 47  47 48  48 49  49 50  50 51  51 52  52 53  53 54  54 55  55 56  56 57  57 58  58 59  59 60  60 61  61 62  62 63  63 64  64 65  65 66  66 67  67 68  68 69  69 70  70 71  71 72  72 73  73 74  74 75  75 76  76 77  77 78  78 79  79 80  80 81  81 82  82 83  83 84  84 85  85 86  86 87  87 88  88 89  89 90  90 91  91 92  92 93  93 94  94 95  95 96  96 97  97 98  98 99  99 100  </DataArray>
<DataArray  type="UInt32"  Name="offsets"  format="ascii">2 4 6 8 10 12 14 16 18 20 22 24 26 28 30 32 34 36 38 40 42 44 46 48 50 52 54 56 58 60 62 64 66 68 70 72 74 76 78 80 82 84 86 88 90 92 94 96 98 100 102 104 106 108 110 112 114 116 118 120 122 124 126 128 130 132 134 136 138 140 142 144 146 148 150 152 154 156 158 160 162 164 166 168 170 172 174 176 178 180 182 184 186 188 190 192 194 196 198 200 </DataArray>
<DataArray  type="UInt8"  Name="types"  format="ascii">3 3 3 3 3 3 3 3 3 3 3 3 3 3 3 3 3 3 3 3 3 3 3 3 3 3 3 3 3 3 3 3 3 3 3 3 3 3 3 3 3 3 3 3 3 3 3 3 3 3 3 3 3 3 3 3 3 3 3 3 3 3 3 3 3 3 3 3 3 3 3 3 3 3 3 3 3 3 3 3 3 3 3 3 3 3 3 3 3 3 3 3 3 3 3 3 3 3 3 3 </DataArray>
</Cells>
<PointData  Scalars="f_14"> 
<DataArray  type="Float64"  Name="f_14"  format="ascii">2.6517315045969057e-06  2.7264027644155092e-06  2.9539508892202511e-06  3.3451113873074237e-06  3.9182218041318923e-06  4.6999014091369551e-06  5.7260271729123881e-06  7.0430307660223788e-06  8.7095488189169725e-06  1.0798466505743068e-05  1.3399402705260358e-05  1.6621693589412170e-05  2.0597940520016763e-05  2.5488197604904913e-05  3.1484884164657510e-05  3.8818517654246379e-05  4.7764373207560707e-05  5.8650186833468065e-05  7.1865030261797981e-05  8.7869496350581318e-05  1.0720734461484315e-04  1.3051876657067644e-04  1.5855543990775571e-04  1.9219754866170712e-04  2.3247295315799519e-04  2.8057869809498831e-04  3.3790504923161059e-04  4.0606224820592988e-04  4.8691017045726030e-04  5.8259106244577135e-04  6.9556552072750385e-04  8.2865185630580222e-04  9.8506896240309577e-04  1.1684827717616671e-03  1.3830563502113258e-03  1.6335036260220974e-03  1.9251466990652828e-03  2.2639766097251211e-03  2.6567173746667528e-03  3.1108930149763543e-03  3.6348972120482685e-03  4.2380651283322919e-03  4.9307468243567571e-03  5.7243815912738603e-03  6.6315724007932090e-03  7.6661595533533307e-03  8.8432924826224932e-03  1.0179498552135085e-02  1.1692747560587793e-02  1.3402510558859672e-02  1.5329811477273228e-02  1.7497269969286230e-02  1.9929133801184107e-02  2.2651299060017234e-02  2.5691316417621568e-02  2.9078381680642296e-02  3.2843308878466412e-02  3.7018484196023695e-02  4.1637799149340328e-02  4.6736561530840263e-02  5.2351382820432016e-02  5.8520040968414913e-02  6.5281317707434089e-02  7.2674809842441498e-02  8.0740714298248362e-02  8.9519587071132112e-02  9.9052076630346944e-02  1.0937863274248753e-01  1.2053919214059475e-01  1.3257284292379115e-01  1.4551747004427185e-01  1.5940938470800800e-01  1.7428294097421868e-01  1.9017014327669196e-01  2.0710024899724455e-01  2.2509937058776477e-01  2.4419008205231832e-01  2.6439103485504106e-01  2.8571658850405635e-01  3.0817646116833336e-01  3.3177540570652519e-01  3.5651291641886418e-01  3.8238297167154328e-01  4.0937381728566896e-01  4.3746779522999446e-01  4.6664122171034095e-01  4.9686431821324833e-01  5.2810119844334091e-01  5.6030991340166159e-01  5.9344255609629459e-01  6.2744542656908608e-01  6.6225925707704170e-01  6.9781949639895757e-01  7.3405665136304765e-01  7.7089668282627777e-01  8.0826145249757642e-01  8.4606921620163777e-01  8.8423515844365841e-01  9.2267196247303196e-01  9.6129040946945288e-01  1.0000000000000000e+00  </DataArray> 
</PointData> 
</Piece>
</UnstructuredGrid>
</VTKFile>