<?xml version="1.0"?>
<VTKFile type="UnstructuredGrid"  version="0.1"  >
<UnstructuredGrid>
<Piece  NumberOfPoints="101" NumberOfCells="100">
<Points>
<DataArray  type="Float64"  NumberOfComponents="3"  format="ascii">0 0 0  0.001 0 0  0.002 0 0  0.003 0 0  0.004 0 0  0.005 0 0  0.006000000000000001 0 0  0.007000000000000001 0 0  0.008 0 0  0.009000000000000001 0 0  0.01 0 0  0.011 0 0  0.012 0 0  0.013 0 0  0.014 0 0  0.015 0 0  0.016 0 0  0.017 0 0  0.018 0 0  0.019 0 0  0.02 0 0  0.021 0 0  0.022 0 0  0.023 0 0  0.024 0 0  0.025 0 0  0.026 0 0  0.027 0 0  0.028 0 0  0.029 0 0  0.03 0 0  0.031 0 0  0.032 0 0  0.033 0 0  0.034 0 0  0.035 0 0  0.036 0 0  0.03700000000000001 0 0  0.03800000000000001 0 0  0.03900000000000001 0 0  0.04 0 0  0.04100000000000001 0 0  0.042 0 0  0.043 0 0  0.044 0 0  0.045 0 0  0.04600000000000001 0 0  0.047 0 0  0.04800000000000001 0 0  0.049 0 0  0.05 0 0  0.051 0 0  0.052 0 0  0.05300000000000001 0 0  0.05400000000000001 0 0  0.055 0 0  0.05600000000000001 0 0  0.057 0 0  0.05800000000000001 0 0  0.059 0 0  0.06 0 0  0.06100000000000001 0 0  0.062 0 0  0.063 0 0  0.064 0 0  0.065 0 0  0.066 0 0  0.067 0 0  0.068 0 0  0.06900000000000001 0 0  0.07000000000000001 0 0  0.07100000000000001 0 0  0.07200000000000001 0 0  0.07300000000000001 0 0  0.07400000000000001 0 0  0.075 0 0  0.07600000000000001 0 0  0.077 0 0  0.07800000000000001 0 0  0.079 0 0  0.08 0 0  0.081 0 0  0.08200000000000002 0 0  0.083 0 0  0.08400000000000001 0 0  0.08500000000000001 0 0  0.08599999999999999 0 0  0.08700000000000001 0 0  0.08800000000000001 0 0  0.08900000000000001 0 0  0.09 0 0  0.091 0 0  0.09200000000000001 0 0  0.09300000000000001 0 0  0.094 0 0  0.095 0 0  0.09600000000000002 0 0  0.09700000000000002 0 0  0.098 0 0  0.099 0 0  0.1 0 0  </DataArray>
</Points>
<Cells>
<DataArray  type="UInt32"  Name="connectivity"  format="ascii">0 1  1 2  2 3  3 4  4 5  5 6  6 7  7 8  8 9  9 10  10 11  11 12  12 13  13 14  14 15  15 16  16 17  17 18  18 19  19 20  20 21  21 22  22 23  23 24  24 25  25 26  26 27  27 28  28 29  29 30  30 31  31 32  32 33  33 34  34 35  35 36  36 37  37 38  38 39  39 40  40 41  41 42  42 43  43 44  44 45  45 46  46 47  47 48  48 49  49 50  50 51  51 52  52 53  53 54  54 55  55 56  56 57  57 58  58 59  59 60  60 61  61 62  62 63  63 64  64 65  65 66  66 67  67 68  68 69  69 70  70 71  71 72  72 73  73 74  74 75  75 76  76 77  77 78  78 79  79 80  80 81  81 82  82 83  83 84  84 85  85 86  86 87  87 88  88 89  89 90  90 91  91 92  92 93  93 94  94 95  95 96  96 97  97 98  98 99  99 100  </DataArray>
<DataArray  type="UInt32"  Name="offsets"  format="ascii">2 4 6 8 10 12 14 16 18 20 22 24 26 28 30 32 34 36 38 40 42 44 46 48 50 52 54 56 58 60 62 64 66 68 70 72 74 76 78 80 82 84 86 88 90 92 94 96 98 100 102 104 106 108 110 112 114 116 118 120 122 124 126 128 130 132 134 136 138 140 142 144 146 148 150 152 154 156 158 160 162 164 166 168 170 172 174 176 178 180 182 184 186 188 190 192 194 196 198 200 </DataArray>
<DataArray  type="UInt8"  Name="types"  format="ascii">3 3 3 3 3 3 3 3 3 3 3 3 3 3 3 3 3 3 3 3 3 3 3 3 3 3 3 3 3 3 3 3 3 3 3 3 3 3 3 3 3 3 3 3 3 3 3 3 3 3 3 3 3 3 3 3 3 3 3 3 3 3 3 3 3 3 3 3 3 3 3 3 3 3 3 3 3 3 3 3 3 3 3 3 3 3 3 3 3 3 3 3 3 3 3 3 3 3 3 3 </DataArray>
</Cells>
<PointData  Scalars="f_14"> 
<DataArray  type="Float64"  Name="f_14"  format="ascii">6.1049350979046934e-07  6.2794320650583662e-07  6.8118742157631109e-07  7.7295142254187961e-07  9.0791175520736933e-07  1.0929030323651554e-06  1.3372178534438234e-06  1.6530105932198418e-06  2.0558193302633399e-06  2.5652240726156914e-06  3.2056637642309646e-06  4.0074394090114689e-06  5.0079361210544778e-06  6.2531030941263196e-06  7.7992374767771322e-06  9.7151260394790036e-06  1.2084607423883942e-05  1.5009627766330391e-05  1.8613873677171997e-05  2.3047079014301888e-05  2.8490115679652950e-05  3.5160993838536616e-05  4.3321913534794355e-05  5.3287527637920938e-05  6.5434595357582431e-05  8.0213226090454734e-05  9.8159934955486166e-05  1.1991275378344677e-04  1.4622866422478174e-04  1.7800364259597847e-04  2.1629562855517305e-04  2.6235075101260113e-04  3.1763316403255083e-04  3.8385886191397004e-04  4.6303385503353883e-04  5.5749709512361190e-04  6.6996853900263957e-04  8.0360273178674041e-04  9.6204827255430417e-04  1.1495134954548475e-03  1.3708386554005904e-03  1.6315748477546709e-03  1.9380698138345741e-03  2.2975606866501206e-03  2.7182736123017473e-03  3.2095300403208846e-03  3.7818593097197770e-03  4.4471169658631864e-03  5.2186080262834229e-03  6.1112141717370484e-03  7.1415235734870897e-03  8.3279617812873300e-03  9.6909217922307722e-03  1.1252891103071819e-02  1.3038573223684874e-02  1.5075000804145561e-02  1.7391637211018020e-02  2.0020463089607792e-02  2.2996044179217190e-02  2.6355576419897882e-02  3.0138904214766699e-02  3.4388507605106783e-02  3.9149454089892330e-02  4.4469310890468870e-02  5.0398013637567511e-02  5.6987687753015909e-02  6.4292419221901431e-02  7.2367972009521123e-02  8.1271450075047491e-02  9.1060902770559796e-02  1.0179487338578355e-01  1.1353189169667217e-01  1.2632991258593684e-01  1.4024570410662571e-01  1.5533418973148011e-01  1.7164775094161347e-01  1.8923549772400897e-01  2.0814251593036504e-01  2.2840910175882706e-01  2.5006999481194009e-01  2.7315362221501321e-01  2.9768136710583532e-01  3.2366687538876349e-01  3.5111541494683451e-01  3.8002330149379959e-01  4.1037740489999580e-01  4.4215474912670955e-01  4.7532221784781914e-01  5.0983637643058866e-01  5.4564341920639958e-01  5.8267924891515777e-01  6.2086969289375649e-01  6.6013085804908034e-01  7.0036962396889890e-01  7.4148427074626655e-01  7.8336523529714708e-01  8.2589598721253266e-01  8.6895401258174498e-01  9.1241189182738980e-01  9.5613845547453702e-01  1.0000000000000000e+00  </DataArray> 
</PointData> 
</Piece>
</UnstructuredGrid>
</VTKFile>