<?xml version="1.0"?>
<VTKFile type="UnstructuredGrid"  version="0.1"  >
<UnstructuredGrid>
<Piece  NumberOfPoints="101" NumberOfCells="100">
<Points>
<DataArray  type="Float64"  NumberOfComponents="3"  format="ascii">0 0 0  0.001 0 0  0.002 0 0  0.003 0 0  0.004 0 0  0.005 0 0  0.006000000000000001 0 0  0.007000000000000001 0 0  0.008 0 0  0.009000000000000001 0 0  0.01 0 0  0.011 0 0  0.012 0 0  0.013 0 0  0.014 0 0  0.015 0 0  0.016 0 0  0.017 0 0  0.018 0 0  0.019 0 0  0.02 0 0  0.021 0 0  0.022 0 0  0.023 0 0  0.024 0 0  0.025 0 0  0.026 0 0  0.027 0 0  0.028 0 0  0.029 0 0  0.03 0 0  0.031 0 0  0.032 0 0  0.033 0 0  0.034 0 0  0.035 0 0  0.036 0 0  0.03700000000000001 0 0  0.03800000000000001 0 0  0.03900000000000001 0 0  0.04 0 0  0.04100000000000001 0 0  0.042 0 0  0.043 0 0  0.044 0 0  0.045 0 0  0.04600000000000001 0 0  0.047 0 0  0.04800000000000001 0 0  0.049 0 0  0.05 0 0  0.051 0 0  0.052 0 0  0.05300000000000001 0 0  0.05400000000000001 0 0  0.055 0 0  0.05600000000000001 0 0  0.057 0 0  0.05800000000000001 0 0  0.059 0 0  0.06 0 0  0.06100000000000001 0 0  0.062 0 0  0.063 0 0  0.064 0 0  0.065 0 0  0.066 0 0  0.067 0 0  0.068 0 0  0.06900000000000001 0 0  0.07000000000000001 0 0  0.07100000000000001 0 0  0.07200000000000001 0 0  0.07300000000000001 0 0  0.07400000000000001 0 0  0.075 0 0  0.07600000000000001 0 0  0.077 0 0  0.07800000000000001 0 0  0.079 0 0  0.08 0 0  0.081 0 0  0.08200000000000002 0 0  0.083 0 0  0.08400000000000001 0 0  0.08500000000000001 0 0  0.08599999999999999 0 0  0.08700000000000001 0 0  0.08800000000000001 0 0  0.08900000000000001 0 0  0.09 0 0  0.091 0 0  0.09200000000000001 0 0  0.09300000000000001 0 0  0.094 0 0  0.095 0 0  0.09600000000000002 0 0  0.09700000000000002 0 0  0.098 0 0  0.099 0 0  0.1 0 0  </DataArray>
</Points>
<Cells>
<DataArray  type="UInt32"  Name="connectivity"  format="ascii">0 1  1 2  2 3  3 4  4 5  5 6  6 7  7 8  8 9  9 10  10 11  11 12  12 13  13 14  14 15  15 16  16 17  17 18  18 19  19 20  20 21  21 22  22 23  23 24  24 25  25 26  26 27  27 28  28 29  29 30  30 31  31 32  32 33  33 34  34 35  35 36  36 37  37 38  38 39  39 40  40 41  41 42  42 43  43 44  44 45  45 46  46 47  47 48  48 49  49 50  50 51  51 52  52 53  53 54  54 55  55 56  56 57  57 58  58 59  59 60  60 61  61 62  62 63  63 64  64 65  65 66  66 67  67 68  68 69  69 70  70 71  71 72  72 73  73 74  74 75  75 76  76 77  77 78  78 79  79 80  80 81  81 82  82 83  83 84  84 85  85 86  86 87  87 88  88 89  89 90  90 91  91 92  92 93  93 94  94 95  95 96  96 97  97 98  98 99  99 100  </DataArray>
<DataArray  type="UInt32"  Name="offsets"  format="ascii">2 4 6 8 10 12 14 16 18 20 22 24 26 28 30 32 34 36 38 40 42 44 46 48 50 52 54 56 58 60 62 64 66 68 70 72 74 76 78 80 82 84 86 88 90 92 94 96 98 100 102 104 106 108 110 112 114 116 118 120 122 124 126 128 130 132 134 136 138 140 142 144 146 148 150 152 154 156 158 160 162 164 166 168 170 172 174 176 178 180 182 184 186 188 190 192 194 196 198 200 </DataArray>
<DataArray  type="UInt8"  Name="types"  format="ascii">3 3 3 3 3 3 3 3 3 3 3 3 3 3 3 3 3 3 3 3 3 3 3 3 3 3 3 3 3 3 3 3 3 3 3 3 3 3 3 3 3 3 3 3 3 3 3 3 3 3 3 3 3 3 3 3 3 3 3 3 3 3 3 3 3 3 3 3 3 3 3 3 3 3 3 3 3 3 3 3 3 3 3 3 3 3 3 3 3 3 3 3 3 3 3 3 3 3 3 3 </DataArray>
</Cells>
<PointData  Scalars="f_14"> 
<DataArray  type="Float64"  Name="f_14"  format="ascii">4.6100759383681654e-07  4.7461889955082126e-07  5.1617664958564062e-07  5.8788596705874357e-07  6.9353543146862246e-07  8.3867170156296135e-07  1.0308532419620817e-06  1.2799927173136885e-06  1.5988007961965974e-06  2.0033476271833623e-06  2.5137621951320772e-06  3.1550942247965704e-06  3.9583683635688552e-06  4.9618661424162871e-06  6.2126777848161109e-06  7.7685734121094656e-06  9.7002516867797789e-06  1.2094033549680772e-05  1.5055079548071969e-05  1.8711221417959459e-05  2.3217512166629265e-05  2.8761613974608985e-05  3.5570159854792713e-05  4.3916243195814884e-05  5.4128209065423198e-05  6.6599942398771870e-05  8.1802870828813438e-05  1.0029992374269644e-04  1.2276171389579107e-04  1.4998523321067535e-04  1.8291537974446604e-04  2.2266965760652587e-04  2.7056641508699849e-04  3.2815700749296343e-04  3.9726228909027863e-04  4.8001385184218842e-04  5.7890043586188893e-04  6.9681993601167171e-04  8.3713741906396729e-04  1.0037495443044383e-03  1.2011557452809580e-03  1.4345364793595847e-03  1.7098387825611281e-03  2.0338692775511134e-03  2.4143946704601590e-03  2.8602496354201818e-03  3.3814518226011180e-03  3.9893235348204305e-03  4.6966193987180022e-03  5.5176591089757523e-03  6.4684640488947842e-03  7.5668962895966627e-03  8.8327981461140005e-03  1.0288130125883643e-02  1.1957104749263970e-02  1.3866313359766432e-02  1.6044842682363183e-02  1.8524377541692640e-02  2.1339285829904811e-02  2.4526681529293406e-02  2.8126461361940878e-02  3.2181310472400693e-02  3.6736672465514049e-02  4.1840679135386950e-02  4.7544035348420437e-02  5.3899854797060699e-02  6.0963442733779349e-02  6.8792022336374464e-02  7.7444402052415678e-02  8.6980582124998110e-02  9.7461299511741789e-02  1.0894751156676741e-01  1.2149982014809090e-01  1.3517783922139895e-01  1.5003951053026185e-01  1.6614037346127683e-01  1.8353279681355064e-01  2.0226518174346286e-01  2.2238114665192182e-01  2.4391870616349307e-01  2.6690945756474799e-01  2.9137778907289041e-01  3.1734012504742709e-01  3.4480422369340269e-01  3.7376854289673750e-01  4.0422168955040572e-01  4.3614196705430092e-01  4.6949703459233033e-01  5.0424369031070781e-01  5.4032778865778008e-01  5.7768429992750181e-01  6.1623751751875111e-01  6.5590141563605453e-01  6.9658015718029676e-01  7.3816874848601222e-01  7.8055383443732007e-01  8.2361462442414191e-01  8.6722393667193354e-01  9.1124934577788541e-01  9.5555441589542645e-01  1.0000000000000000e+00  </DataArray> 
</PointData> 
</Piece>
</UnstructuredGrid>
</VTKFile>