<?xml version="1.0"?>
<VTKFile type="UnstructuredGrid"  version="0.1"  >
<UnstructuredGrid>
<Piece  NumberOfPoints="101" NumberOfCells="100">
<Points>
<DataArray  type="Float64"  NumberOfComponents="3"  format="ascii">0 0 0  0.001 0 0  0.002 0 0  0.003 0 0  0.004 0 0  0.005 0 0  0.006000000000000001 0 0  0.007000000000000001 0 0  0.008 0 0  0.009000000000000001 0 0  0.01 0 0  0.011 0 0  0.012 0 0  0.013 0 0  0.014 0 0  0.015 0 0  0.016 0 0  0.017 0 0  0.018 0 0  0.019 0 0  0.02 0 0  0.021 0 0  0.022 0 0  0.023 0 0  0.024 0 0  0.025 0 0  0.026 0 0  0.027 0 0  0.028 0 0  0.029 0 0  0.03 0 0  0.031 0 0  0.032 0 0  0.033 0 0  0.034 0 0  0.035 0 0  0.036 0 0  0.03700000000000001 0 0  0.03800000000000001 0 0  0.03900000000000001 0 0  0.04 0 0  0.04100000000000001 0 0  0.042 0 0  0.043 0 0  0.044 0 0  0.045 0 0  0.04600000000000001 0 0  0.047 0 0  0.04800000000000001 0 0  0.049 0 0  0.05 0 0  0.051 0 0  0.052 0 0  0.05300000000000001 0 0  0.05400000000000001 0 0  0.055 0 0  0.05600000000000001 0 0  0.057 0 0  0.05800000000000001 0 0  0.059 0 0  0.06 0 0  0.06100000000000001 0 0  0.062 0 0  0.063 0 0  0.064 0 0  0.065 0 0  0.066 0 0  0.067 0 0  0.068 0 0  0.06900000000000001 0 0  0.07000000000000001 0 0  0.07100000000000001 0 0  0.07200000000000001 0 0  0.07300000000000001 0 0  0.07400000000000001 0 0  0.075 0 0  0.07600000000000001 0 0  0.077 0 0  0.07800000000000001 0 0  0.079 0 0  0.08 0 0  0.081 0 0  0.08200000000000002 0 0  0.083 0 0  0.08400000000000001 0 0  0.08500000000000001 0 0  0.08599999999999999 0 0  0.08700000000000001 0 0  0.08800000000000001 0 0  0.08900000000000001 0 0  0.09 0 0  0.091 0 0  0.09200000000000001 0 0  0.09300000000000001 0 0  0.094 0 0  0.095 0 0  0.09600000000000002 0 0  0.09700000000000002 0 0  0.098 0 0  0.099 0 0  0.1 0 0  </DataArray>
</Points>
<Cells>
<DataArray  type="UInt32"  Name="connectivity"  format="ascii">0 1  1 2  2 3  3 4  4 5  5 6  6 7  7 8  8 9  9 10  10 11  11 12  12 13  13 14  14 15  15 16  16 17  17 18  18 19  19 20  20 21  21 22  22 23  23 24  24 25  25 26  26 27  27 28  28 29  29 30  30 31  31 32  32 33  33 34  34 35  35 36  36 37  37 38  38 39  39 40  40 41  41 42  42 43  43 44  44 45  45 46  46 47  47 48  48 49  49 50  50 51  51 52  52 53  53 54  54 55  55 56  56 57  57 58  58 59  59 60  60 61  61 62  62 63  63 64  64 65  65 66  66 67  67 68  68 69  69 70  70 71  71 72  72 73  73 74  74 75  75 76  76 77  77 78  78 79  79 80  80 81  81 82  82 83  83 84  84 85  85 86  86 87  87 88  88 89  89 90  90 91  91 92  92 93  93 94  94 95  95 96  96 97  97 98  98 99  99 100  </DataArray>
<DataArray  type="UInt32"  Name="offsets"  format="ascii">2 4 6 8 10 12 14 16 18 20 22 24 26 28 30 32 34 36 38 40 42 44 46 48 50 52 54 56 58 60 62 64 66 68 70 72 74 76 78 80 82 84 86 88 90 92 94 96 98 100 102 104 106 108 110 112 114 116 118 120 122 124 126 128 130 132 134 136 138 140 142 144 146 148 150 152 154 156 158 160 162 164 166 168 170 172 174 176 178 180 182 184 186 188 190 192 194 196 198 200 </DataArray>
<DataArray  type="UInt8"  Name="types"  format="ascii">3 3 3 3 3 3 3 3 3 3 3 3 3 3 3 3 3 3 3 3 3 3 3 3 3 3 3 3 3 3 3 3 3 3 3 3 3 3 3 3 3 3 3 3 3 3 3 3 3 3 3 3 3 3 3 3 3 3 3 3 3 3 3 3 3 3 3 3 3 3 3 3 3 3 3 3 3 3 3 3 3 3 3 3 3 3 3 3 3 3 3 3 3 3 3 3 3 3 3 3 </DataArray>
</Cells>
<PointData  Scalars="f_14"> 
<DataArray  type="Float64"  Name="f_14"  format="ascii">1.3385815849147266e-03  1.3477893487300644e-03  1.3755027273247456e-03  1.4219924138708713e-03  1.4877110009067643e-03  1.5732951297704816e-03  1.6795684868495784e-03  1.8075456335285346e-03  1.9584366527395066e-03  2.1336525908810036e-03  2.3348116695318852e-03  2.5637462368274921e-03  2.8225104235575678e-03  3.1133884639736290e-03  3.4389036359434720e-03  3.8018277694554510e-03  4.2051912665543572e-03  4.6522935695902006e-03  5.1467140081947107e-03  5.6923229486889786e-03  6.2932931626989274e-03  6.9541113246508485e-03  7.6795895405833764e-03  8.4748768033999639e-03  9.3454702623605741e-03  1.0297226187345240e-02  1.1336370501295566e-02  1.2469508747341635e-02  1.3703635350547170e-02  1.5046142028057591e-02  1.6504825195823018e-02  1.8087892215105320e-02  1.9803966317782879e-02  2.1662090046160768e-02  2.3671727040699041e-02  2.5842762007912107e-02  2.8185498700787643e-02  3.0710655745542995e-02  3.3429360151493143e-02  3.6353138345352511e-02  3.9493904577530409e-02  4.2863946555991711e-02  4.6475908173112479e-02  5.0342769202723715e-02  5.4477821858240454e-02  5.8894644118444459e-02  6.3607069745122355e-02  6.8629154936332204e-02  7.3975141580541900e-02  7.9659417100164678e-02  8.5696470898030369e-02  9.2100847446928244e-02  9.8887096090406509e-02  1.0606971765231504e-01  1.1366310798293679e-01  1.2168149860072837e-01  1.3013889462042638e-01  1.3904901019028598e-01  1.4842520169320739e-01  1.5828039899813695e-01  1.6862703507908605e-01  1.7947697434901663e-01  1.9084144008436393e-01  2.0273094134272374e-01  2.1515519980086054e-01  2.2812307696235348e-01  2.4164250220350905e-01  2.5572040214232727e-01  2.7036263182797415e-01  2.8557390825710655e-01  3.0135774672824855e-01  3.1771640054600347e-01  3.3465080458301077e-01  3.5216052319907470e-01  3.7024370300369980e-01  3.8889703093030870e-01  4.0811569806770420e-01  4.2789336966689356e-01  4.4822216170937623e-01  4.6909262438649801e-01  4.9049373279881309e-01  5.1241288513973149e-01  5.3483590857950658e-01  5.5774707301411963e-01  5.8112911278934021e-01  6.0496325645360383e-01  6.2922926453490891e-01  6.5390547527718790e-01  6.7896885821114628e-01  7.0439507537400703e-01  7.3015854993245755e-01  7.5623254190411437e-01  7.8258923061546992e-01  8.0919980347927645e-01  8.3603455062216214e-01  8.6306296484455081e-01  8.9025384635020333e-01  9.1757541164238943e-01  9.4499540594826981e-01  9.7248121850293345e-01  1.0000000000000000e+00  </DataArray> 
</PointData> 
</Piece>
</UnstructuredGrid>
</VTKFile>