<?xml version="1.0"?>
<VTKFile type="UnstructuredGrid"  version="0.1"  >
<UnstructuredGrid>
<Piece  NumberOfPoints="101" NumberOfCells="100">
<Points>
<DataArray  type="Float64"  NumberOfComponents="3"  format="ascii">0 0 0  0.001 0 0  0.002 0 0  0.003 0 0  0.004 0 0  0.005 0 0  0.006000000000000001 0 0  0.007000000000000001 0 0  0.008 0 0  0.009000000000000001 0 0  0.01 0 0  0.011 0 0  0.012 0 0  0.013 0 0  0.014 0 0  0.015 0 0  0.016 0 0  0.017 0 0  0.018 0 0  0.019 0 0  0.02 0 0  0.021 0 0  0.022 0 0  0.023 0 0  0.024 0 0  0.025 0 0  0.026 0 0  0.027 0 0  0.028 0 0  0.029 0 0  0.03 0 0  0.031 0 0  0.032 0 0  0.033 0 0  0.034 0 0  0.035 0 0  0.036 0 0  0.03700000000000001 0 0  0.03800000000000001 0 0  0.03900000000000001 0 0  0.04 0 0  0.04100000000000001 0 0  0.042 0 0  0.043 0 0  0.044 0 0  0.045 0 0  0.04600000000000001 0 0  0.047 0 0  0.04800000000000001 0 0  0.049 0 0  0.05 0 0  0.051 0 0  0.052 0 0  0.05300000000000001 0 0  0.05400000000000001 0 0  0.055 0 0  0.05600000000000001 0 0  0.057 0 0  0.05800000000000001 0 0  0.059 0 0  0.06 0 0  0.06100000000000001 0 0  0.062 0 0  0.063 0 0  0.064 0 0  0.065 0 0  0.066 0 0  0.067 0 0  0.068 0 0  0.06900000000000001 0 0  0.07000000000000001 0 0  0.07100000000000001 0 0  0.07200000000000001 0 0  0.07300000000000001 0 0  0.07400000000000001 0 0  0.075 0 0  0.07600000000000001 0 0  0.077 0 0  0.07800000000000001 0 0  0.079 0 0  0.08 0 0  0.081 0 0  0.08200000000000002 0 0  0.083 0 0  0.08400000000000001 0 0  0.08500000000000001 0 0  0.08599999999999999 0 0  0.08700000000000001 0 0  0.08800000000000001 0 0  0.08900000000000001 0 0  0.09 0 0  0.091 0 0  0.09200000000000001 0 0  0.09300000000000001 0 0  0.094 0 0  0.095 0 0  0.09600000000000002 0 0  0.09700000000000002 0 0  0.098 0 0  0.099 0 0  0.1 0 0  </DataArray>
</Points>
<Cells>
<DataArray  type="UInt32"  Name="connectivity"  format="ascii">0 1  1 2  2 3  3 4  4 5  5 6  6 7  7 8  8 9  9 10  10 11  11 12  12 13  13 14  14 15  15 16  16 17  17 18  18 19  19 20  20 21  21 22  22 23  23 24  24 25  25 26  26 27  27 28  28 29  29 30  30 31  31 32  32 33  33 34  34 35  35 36  36 37  37 38  38 39  39 40  40 41  41 42  42 43  43 44  44 45  45 46  46 47  47 48  48 49  49 50  50 51  51 52  52 53  53 54  54 55  55 56  56 57  57 58  58 59  59 60  60 61  61 62  62 63  63 64  64 65  65 66  66 67  67 68  68 69  69 70  70 71  71 72  72 73  73 74  74 75  75 76  76 77  77 78  78 79  79 80  80 81  81 82  82 83  83 84  84 85  85 86  86 87  87 88  88 89  89 90  90 91  91 92  92 93  93 94  94 95  95 96  96 97  97 98  98 99  99 100  </DataArray>
<DataArray  type="UInt32"  Name="offsets"  format="ascii">2 4 6 8 10 12 14 16 18 20 22 24 26 28 30 32 34 36 38 40 42 44 46 48 50 52 54 56 58 60 62 64 66 68 70 72 74 76 78 80 82 84 86 88 90 92 94 96 98 100 102 104 106 108 110 112 114 116 118 120 122 124 126 128 130 132 134 136 138 140 142 144 146 148 150 152 154 156 158 160 162 164 166 168 170 172 174 176 178 180 182 184 186 188 190 192 194 196 198 200 </DataArray>
<DataArray  type="UInt8"  Name="types"  format="ascii">3 3 3 3 3 3 3 3 3 3 3 3 3 3 3 3 3 3 3 3 3 3 3 3 3 3 3 3 3 3 3 3 3 3 3 3 3 3 3 3 3 3 3 3 3 3 3 3 3 3 3 3 3 3 3 3 3 3 3 3 3 3 3 3 3 3 3 3 3 3 3 3 3 3 3 3 3 3 3 3 3 3 3 3 3 3 3 3 3 3 3 3 3 3 3 3 3 3 3 3 </DataArray>
</Cells>
<PointData  Scalars="f_14"> 
<DataArray  type="Float64"  Name="f_14"  format="ascii">3.2616046358867967e-17  3.5946532514729345e-17  4.6613070279427089e-17  6.6776607527543243e-17  1.0051812348172254e-16  1.5465767283706398e-16  2.4012116481859757e-16  3.7412620096140300e-16  5.8362005890965578e-16  9.1064955802679520e-16  1.4207221033148006e-15  2.2158033700825523e-15  3.4545033380213821e-15  5.3834036315563965e-15  8.3856450257626425e-15  1.3056240049138056e-14  2.0318741748485403e-14  3.1605870618509292e-14  4.9138991732923187e-14  7.6360270022796027e-14  1.1860048570101825e-13  1.8411034384638992e-13  2.8565206077325767e-13  4.4295391559395239e-13  6.8649299302455154e-13  1.0633205833607374e-12  1.6460265610057172e-12  2.5465235655518081e-12  3.9372256651412359e-12  6.0835617984264854e-12  9.3938485749025191e-12  1.4495724889369221e-11  2.2353190903242072e-11  3.4445657577916057e-11  5.3041603050925154e-11  8.1616417025132311e-11  1.2548976320906292e-10  1.9279677518221300e-10  2.9596634929447040e-10  4.5396880935282605e-10  6.9572943199206017e-10  1.0653063941681196e-09  1.6297354740271359e-09  2.4908997490295993e-09  3.8034656407202385e-09  5.8019483722009119e-09  8.8414952726667070e-09  1.3459248277246465e-08  2.0466526956526046e-08  3.1087089058180467e-08  4.7164151842307936e-08  7.1469827331282631e-08  1.0816678883839644e-07  1.6349574238531504e-07  2.4679709447911890e-07  3.7202608882756742e-07  5.5999480920323322e-07  8.4168207566501034e-07  1.2631079915791665e-06  1.8924943773585045e-06  2.8307545965989413e-06  4.2268169332023242e-06  6.2999410481432759e-06  9.3721146995330180e-06  1.3914923711649643e-05  2.0617115154992173e-05  3.0481612859127706e-05  4.4964247371226949e-05  6.6171255520305720e-05  9.7139102509347981e-05  1.4222889613589972e-04  2.0767921570951950e-04  3.0237627636467743e-04  4.3891975385806811e-04  6.3508703352666614e-04  9.1582865645955819e-04  1.3159633935893454e-03  1.8837818773340448e-03  2.6858107276730701e-03  3.8130298450557566e-03  5.3888655226040066e-03  7.5792874548107798e-03  1.0605297568217745e-02  1.4757982659931562e-02  2.0416070187374610e-02  2.8065525521156789e-02  3.8320100160813816e-02  5.1940825553914230e-02  6.9851207439988336e-02  9.3143324214959855e-02  1.2306828623107424e-01  1.6100286388654922e-01  2.0838309848509376e-01  2.6659627667179042e-01  3.3682605245151037e-01  4.1985324029024929e-01  5.1582810902898579e-01  6.2404875740072785e-01  7.4280101274284505e-01  8.6932934573077425e-01  1.0000000000000000e+00  </DataArray> 
</PointData> 
</Piece>
</UnstructuredGrid>
</VTKFile>