<?xml version="1.0"?>
<VTKFile type="UnstructuredGrid"  version="0.1"  >
<UnstructuredGrid>
<Piece  NumberOfPoints="101" NumberOfCells="100">
<Points>
<DataArray  type="Float64"  NumberOfComponents="3"  format="ascii">0 0 0  0.001 0 0  0.002 0 0  0.003 0 0  0.004 0 0  0.005 0 0  0.006000000000000001 0 0  0.007000000000000001 0 0  0.008 0 0  0.009000000000000001 0 0  0.01 0 0  0.011 0 0  0.012 0 0  0.013 0 0  0.014 0 0  0.015 0 0  0.016 0 0  0.017 0 0  0.018 0 0  0.019 0 0  0.02 0 0  0.021 0 0  0.022 0 0  0.023 0 0  0.024 0 0  0.025 0 0  0.026 0 0  0.027 0 0  0.028 0 0  0.029 0 0  0.03 0 0  0.031 0 0  0.032 0 0  0.033 0 0  0.034 0 0  0.035 0 0  0.036 0 0  0.03700000000000001 0 0  0.03800000000000001 0 0  0.03900000000000001 0 0  0.04 0 0  0.04100000000000001 0 0  0.042 0 0  0.043 0 0  0.044 0 0  0.045 0 0  0.04600000000000001 0 0  0.047 0 0  0.04800000000000001 0 0  0.049 0 0  0.05 0 0  0.051 0 0  0.052 0 0  0.05300000000000001 0 0  0.05400000000000001 0 0  0.055 0 0  0.05600000000000001 0 0  0.057 0 0  0.05800000000000001 0 0  0.059 0 0  0.06 0 0  0.06100000000000001 0 0  0.062 0 0  0.063 0 0  0.064 0 0  0.065 0 0  0.066 0 0  0.067 0 0  0.068 0 0  0.06900000000000001 0 0  0.07000000000000001 0 0  0.07100000000000001 0 0  0.07200000000000001 0 0  0.07300000000000001 0 0  0.07400000000000001 0 0  0.075 0 0  0.07600000000000001 0 0  0.077 0 0  0.07800000000000001 0 0  0.079 0 0  0.08 0 0  0.081 0 0  0.08200000000000002 0 0  0.083 0 0  0.08400000000000001 0 0  0.08500000000000001 0 0  0.08599999999999999 0 0  0.08700000000000001 0 0  0.08800000000000001 0 0  0.08900000000000001 0 0  0.09 0 0  0.091 0 0  0.09200000000000001 0 0  0.09300000000000001 0 0  0.094 0 0  0.095 0 0  0.09600000000000002 0 0  0.09700000000000002 0 0  0.098 0 0  0.099 0 0  0.1 0 0  </DataArray>
</Points>
<Cells>
<DataArray  type="UInt32"  Name="connectivity"  format="ascii">0 1  1 2  2 3  3 4  4 5  5 6  6 7  7 8  8 9  9 10  10 11  11 12  12 13  13 14  14 15  15 16  16 17  17 18  18 19  19 20  20 21  21 22  22 23  23 24  24 25  25 26  26 27  27 28  28 29  29 30  30 31  31 32  32 33  33 34  34 35  35 36  36 37  37 38  38 39  39 40  40 41  41 42  42 43  43 44  44 45  45 46  46 47  47 48  48 49  49 50  50 51  51 52  52 53  53 54  54 55  55 56  56 57  57 58  58 59  59 60  60 61  61 62  62 63  63 64  64 65  65 66  66 67  67 68  68 69  69 70  70 71  71 72  72 73  73 74  74 75  75 76  76 77  77 78  78 79  79 80  80 81  81 82  82 83  83 84  84 85  85 86  86 87  87 88  88 89  89 90  90 91  91 92  92 93  93 94  94 95  95 96  96 97  97 98  98 99  99 100  </DataArray>
<DataArray  type="UInt32"  Name="offsets"  format="ascii">2 4 6 8 10 12 14 16 18 20 22 24 26 28 30 32 34 36 38 40 42 44 46 48 50 52 54 56 58 60 62 64 66 68 70 72 74 76 78 80 82 84 86 88 90 92 94 96 98 100 102 104 106 108 110 112 114 116 118 120 122 124 126 128 130 132 134 136 138 140 142 144 146 148 150 152 154 156 158 160 162 164 166 168 170 172 174 176 178 180 182 184 186 188 190 192 194 196 198 200 </DataArray>
<DataArray  type="UInt8"  Name="types"  format="ascii">3 3 3 3 3 3 3 3 3 3 3 3 3 3 3 3 3 3 3 3 3 3 3 3 3 3 3 3 3 3 3 3 3 3 3 3 3 3 3 3 3 3 3 3 3 3 3 3 3 3 3 3 3 3 3 3 3 3 3 3 3 3 3 3 3 3 3 3 3 3 3 3 3 3 3 3 3 3 3 3 3 3 3 3 3 3 3 3 3 3 3 3 3 3 3 3 3 3 3 3 </DataArray>
</Cells>
<PointData  Scalars="f_14"> 
<DataArray  type="Float64"  Name="f_14"  format="ascii">5.1272580629694264e-06  5.2383509556783563e-06  5.5758088589931747e-06  6.1522989491942186e-06  6.9893678109498757e-06  8.1181037499365586e-06  9.5800849024949989e-06  1.1428634290791467e-05  1.3730409404101614e-05  1.6567360601888026e-05  2.0039099684298592e-05  2.4265727405451383e-05  2.9391176550333357e-05  3.5587135482264855e-05  4.3057625806277829e-05  5.2044316980099576e-05  6.2832670315588339e-05  7.5759014804325535e-05  9.1218667501175203e-05  1.0967522170954959e-04  1.3167113679976643e-04  1.5783977398863927e-04  1.8891903260545304e-04  2.2576675101406798e-04  2.6937804515329421e-04  3.2090476524832874e-04  3.8167725723355463e-04  4.5322861935711764e-04  5.3732164580352730e-04  6.3597864741414209e-04  7.5151433410143239e-04  8.8657193369404022e-04  1.0441627070346218e-03  1.2277089984767810e-03  1.4410909337767223e-03  1.6886968430423594e-03  1.9754774442070017e-03  2.3070037718061435e-03  2.6895287761006300e-03  3.1300524483600651e-03  3.6363902490878838e-03  4.2172445269982213e-03  4.8822785177180493e-03  5.6421924028063515e-03  6.5088007923574040e-03  7.4951108691096585e-03  8.6154002998860193e-03  9.8852938829941169e-03  1.1321837759966898e-02  1.2943569879182135e-02  1.4770585260344294e-02  1.6824594475822227e-02  1.9128973641083374e-02  2.1708804095959537e-02  2.4590899865531601e-02  2.7803820918557421e-02  3.1377870197251564e-02  3.5345072379543215e-02  3.9739132358281824e-02  4.4595371485575894e-02  4.9950639738511673e-02  5.5843202118307941e-02  6.2312597801228040e-02  6.9399470818094361e-02  7.7145371350793315e-02  8.5592527098286603e-02  9.4783584579565039e-02  1.0476132070347167e-01  1.1556832544061149e-01  1.2724665697431928e-01  1.3983747127795501e-01  1.5338062865519361e-01  1.6791428037759404e-01  1.8347443914742129e-01  2.0009453769023197e-01  2.1780498032709814e-01  2.3663269287602079e-01  2.5660067667141406e-01  2.7772757285517075e-01  3.0002724336896891e-01  3.2350837525266740e-01  3.4817411491668748e-01  3.7402173899826330e-01  4.0104236822554268e-01  4.2922073039584430e-01  4.5853497812386518e-01  4.8895656643460433e-01  5.2045019456973007e-01  5.5297381555407965e-01  5.8647871614323932e-01  6.2090966875903342e-01  6.5620515593565354e-01  6.9229766666569914e-01  7.2911406287544089e-01  7.6657601309627654e-01  8.0460048925969641e-01  8.4310032145130198e-01  8.8198480444020289e-01  9.2116034887689890e-01  9.6053116924710857e-01  1.0000000000000000e+00  </DataArray> 
</PointData> 
</Piece>
</UnstructuredGrid>
</VTKFile>