<?xml version="1.0"?>
<VTKFile type="UnstructuredGrid"  version="0.1"  >
<UnstructuredGrid>
<Piece  NumberOfPoints="101" NumberOfCells="100">
<Points>
<DataArray  type="Float64"  NumberOfComponents="3"  format="ascii">0 0 0  0.001 0 0  0.002 0 0  0.003 0 0  0.004 0 0  0.005 0 0  0.006000000000000001 0 0  0.007000000000000001 0 0  0.008 0 0  0.009000000000000001 0 0  0.01 0 0  0.011 0 0  0.012 0 0  0.013 0 0  0.014 0 0  0.015 0 0  0.016 0 0  0.017 0 0  0.018 0 0  0.019 0 0  0.02 0 0  0.021 0 0  0.022 0 0  0.023 0 0  0.024 0 0  0.025 0 0  0.026 0 0  0.027 0 0  0.028 0 0  0.029 0 0  0.03 0 0  0.031 0 0  0.032 0 0  0.033 0 0  0.034 0 0  0.035 0 0  0.036 0 0  0.03700000000000001 0 0  0.03800000000000001 0 0  0.03900000000000001 0 0  0.04 0 0  0.04100000000000001 0 0  0.042 0 0  0.043 0 0  0.044 0 0  0.045 0 0  0.04600000000000001 0 0  0.047 0 0  0.04800000000000001 0 0  0.049 0 0  0.05 0 0  0.051 0 0  0.052 0 0  0.05300000000000001 0 0  0.05400000000000001 0 0  0.055 0 0  0.05600000000000001 0 0  0.057 0 0  0.05800000000000001 0 0  0.059 0 0  0.06 0 0  0.06100000000000001 0 0  0.062 0 0  0.063 0 0  0.064 0 0  0.065 0 0  0.066 0 0  0.067 0 0  0.068 0 0  0.06900000000000001 0 0  0.07000000000000001 0 0  0.07100000000000001 0 0  0.07200000000000001 0 0  0.07300000000000001 0 0  0.07400000000000001 0 0  0.075 0 0  0.07600000000000001 0 0  0.077 0 0  0.07800000000000001 0 0  0.079 0 0  0.08 0 0  0.081 0 0  0.08200000000000002 0 0  0.083 0 0  0.08400000000000001 0 0  0.08500000000000001 0 0  0.08599999999999999 0 0  0.08700000000000001 0 0  0.08800000000000001 0 0  0.08900000000000001 0 0  0.09 0 0  0.091 0 0  0.09200000000000001 0 0  0.09300000000000001 0 0  0.094 0 0  0.095 0 0  0.09600000000000002 0 0  0.09700000000000002 0 0  0.098 0 0  0.099 0 0  0.1 0 0  </DataArray>
</Points>
<Cells>
<DataArray  type="UInt32"  Name="connectivity"  format="ascii">0 1  1 2  2 3  3 4  4 5  5 6  6 7  7 8  8 9  9 10  10 11  11 12  12 13  13 14  14 15  15 16  16 17  17 18  18 19  19 20  20 21  21 22  22 23  23 24  24 25  25 26  26 27  27 28  28 29  29 30  30 31  31 32  32 33  33 34  34 35  35 36  36 37  37 38  38 39  39 40  40 41  41 42  42 43  43 44  44 45  45 46  46 47  47 48  48 49  49 50  50 51  51 52  52 53  53 54  54 55  55 56  56 57  57 58  58 59  59 60  60 61  61 62  62 63  63 64  64 65  65 66  66 67  67 68  68 69  69 70  70 71  71 72  72 73  73 74  74 75  75 76  76 77  77 78  78 79  79 80  80 81  81 82  82 83  83 84  84 85  85 86  86 87  87 88  88 89  89 90  90 91  91 92  92 93  93 94  94 95  95 96  96 97  97 98  98 99  99 100  </DataArray>
<DataArray  type="UInt32"  Name="offsets"  format="ascii">2 4 6 8 10 12 14 16 18 20 22 24 26 28 30 32 34 36 38 40 42 44 46 48 50 52 54 56 58 60 62 64 66 68 70 72 74 76 78 80 82 84 86 88 90 92 94 96 98 100 102 104 106 108 110 112 114 116 118 120 122 124 126 128 130 132 134 136 138 140 142 144 146 148 150 152 154 156 158 160 162 164 166 168 170 172 174 176 178 180 182 184 186 188 190 192 194 196 198 200 </DataArray>
<DataArray  type="UInt8"  Name="types"  format="ascii">3 3 3 3 3 3 3 3 3 3 3 3 3 3 3 3 3 3 3 3 3 3 3 3 3 3 3 3 3 3 3 3 3 3 3 3 3 3 3 3 3 3 3 3 3 3 3 3 3 3 3 3 3 3 3 3 3 3 3 3 3 3 3 3 3 3 3 3 3 3 3 3 3 3 3 3 3 3 3 3 3 3 3 3 3 3 3 3 3 3 3 3 3 3 3 3 3 3 3 3 </DataArray>
</Cells>
<PointData  Scalars="f_14"> 
<DataArray  type="Float64"  Name="f_14"  format="ascii">4.6237701475107544e-08  4.7967071186078429e-08  5.3274561802036064e-08  6.2525776819641803e-08  7.6355327945329645e-08  9.5706194220555520e-08  1.2188779305967808e-07  1.5665589157867906e-07  2.0231861501885808e-07  2.6187412379316650e-07  3.3918708474744074e-07  4.3921291586018442e-07  5.6828100567153899e-07  7.3445077825644884e-07  9.4795768225609785e-07  1.2217700323152864e-06  1.5722822419516729e-06  2.0201754932733580e-06  2.5914834433132813e-06  3.3189083396244924e-06  4.2434420985584665e-06  5.4163576964287175e-06  6.9016488624639671e-06  8.7790107848701217e-06  1.1147471601825534e-05  1.4129804109850560e-05  1.7877869645416848e-05  2.2579071735880404e-05  2.8464126105888072e-05  3.5816386161940096e-05  4.4982999301807505e-05  5.6388209369153216e-05  7.0549164252646144e-05  8.8094634830037497e-05  1.0978710182247473e-04  1.3654872007733593e-04  1.6949172450157521e-04  2.0995389717405076e-04  2.5953976956598270e-04  3.2016828537403524e-04  3.9412769584210505e-04  4.8413849773575279e-04  5.9342525092220539e-04  7.2579812382874385e-04  8.8574500637586160e-04  1.0785349962479413e-03  1.3103340000313627e-03  1.5883330898850182e-03  1.9208901128209869e-03  2.3176848570966970e-03  2.7898878325489989e-03  3.3503424132816967e-03  4.0137597171047259e-03  4.7969251528805941e-03  5.7189150525019687e-03  6.8013212188171102e-03  8.0684805673542099e-03  9.5477063243252433e-03  1.1269516476021764e-02  1.3267854359468373e-02  1.5580295459788935e-02  1.8248233659706171e-02  2.1317039399389490e-02  2.4836181483685580e-02  2.8859303656148538e-02  3.3444246586393625e-02  3.8653005632859110e-02  4.4551614691989747e-02  5.1209946671500646e-02  5.8701421671457643e-02  6.7102614859157930e-02  7.6492757311410392e-02  8.6953124789794417e-02  9.8566311516962143e-02  1.1141538852585238e-01  1.2558294903213613e-01  1.4115004648754337e-01  1.5819503444210606e-01  1.7679232099090733e-01  1.9701105430052493e-01  2.1891375937991620e-01  2.4255494974388572e-01  2.6797974076912512e-01  2.9522249421353680e-01  3.2430552541213142e-01  3.5523790593947302e-01  3.8801439491865863e-01  4.2261453156337325e-01  4.5900191989705552e-01  4.9712373387302716e-01  5.3691046733451087e-01  5.7827594846148500e-01  6.2111763265510711e-01  6.6531718135693296e-01  7.1074132727621386e-01  7.5724301912501002e-01  8.0466283148413675e-01  8.5283061810495353e-01  9.0156738005874559e-01  9.5068731393498140e-01  1.0000000000000000e+00  </DataArray> 
</PointData> 
</Piece>
</UnstructuredGrid>
</VTKFile>