<?xml version="1.0"?>
<VTKFile type="UnstructuredGrid"  version="0.1"  >
<UnstructuredGrid>
<Piece  NumberOfPoints="17576" NumberOfCells="93750">
<Points>
<DataArray  type="Float64"  NumberOfComponents="3"  format="ascii">0 0 0  0.04 0 0  0.08 0 0  0.12 0 0  0.16 0 0  0.2 0 0  0.24 0 0  0.28 0 0  0.32 0 0  0.36 0 0  0.4 0 0  0.44 0 0  0.48 0 0  0.52 0 0  0.5600000000000001 0 0  0.6 0 0  0.64 0 0  0.68 0 0  0.72 0 0  0.76 0 0  0.8 0 0  0.84 0 0  0.88 0 0  0.92 0 0  0.96 0 0  1 0 0  0 0.04 0  0.04 0.04 0  0.08 0.04 0  0.12 0.04 0  0.16 0.04 0  0.2 0.04 0  0.24 0.04 0  0.28 0.04 0  0.32 0.04 0  0.36 0.04 0  0.4 0.04 0  0.44 0.04 0  0.48 0.04 0  0.52 0.04 0  0.5600000000000001 0.04 0  0.6 0.04 0  0.64 0.04 0  0.68 0.04 0  0.72 0.04 0  0.76 0.04 0  0.8 0.04 0  0.84 0.04 0  0.88 0.04 0  0.92 0.04 0  0.96 0.04 0  1 0.04 0  0 0.08 0  0.04 0.08 0  0.08 0.08 0  0.12 0.08 0  0.16 0.08 0  0.2 0.08 0  0.24 0.08 0  0.28 0.08 0  0.32 0.08 0  0.36 0.08 0  0.4 0.08 0  0.44 0.08 0  0.48 0.08 0  0.52 0.08 0  0.5600000000000001 0.08 0  0.6 0.08 0  0.64 0.08 0  0.68 0.08 0  0.72 0.08 0  0.76 0.08 0  0.8 0.08 0  0.84 0.08 0  0.88 0.08 0  0.92 0.08 0  0.96 0.08 0  1 0.08 0  0 0.12 0  0.04 0.12 0  0.08 0.12 0  0.12 0.12 0  0.16 0.12 0  0.2 0.12 0  0.24 0.12 0  0.28 0.12 0  0.32 0.12 0  0.36 0.12 0  0.4 0.12 0  0.44 0.12 0  0.48 0.12 0  0.52 0.12 0  0.5600000000000001 0.12 0  0.6 0.12 0  0.64 0.12 0  0.68 0.12 0  0.72 0.12 0  0.76 0.12 0  0.8 0.12 0  0.84 0.12 0  0.88 0.12 0  0.92 0.12 0  0.96 0.12 0  1 0.12 0  0 0.16 0  0.04 0.16 0  0.08 0.16 0  0.12 0.16 0  0.16 0.16 0  0.2 0.16 0  0.24 0.16 0  0.28 0.16 0  0.32 0.16 0  0.36 0.16 0  0.4 0.16 0  0.44 0.16 0  0.48 0.16 0  0.52 0.16 0  0.5600000000000001 0.16 0  0.6 0.16 0  0.64 0.16 0  0.68 0.16 0  0.72 0.16 0  0.76 0.16 0  0.8 0.16 0  0.84 0.16 0  0.88 0.16 0  0.92 0.16 0  0.96 0.16 0  1 0.16 0  0 0.2 0  0.04 0.2 0  0.08 0.2 0  0.12 0.2 0  0.16 0.2 0  0.2 0.2 0  0.24 0.2 0  0.28 0.2 0  0.32 0.2 0  0.36 0.2 0  0.4 0.2 0  0.44 0.2 0  0.48 0.2 0  0.52 0.2 0  0.5600000000000001 0.2 0  0.6 0.2 0  0.64 0.2 0  0.68 0.2 0  0.72 0.2 0  0.76 0.2 0  0.8 0.2 0  0.84 0.2 0  0.88 0.2 0  0.92 0.2 0  0.96 0.2 0  1 0.2 0  0 0.24 0  0.04 0.24 0  0.08 0.24 0  0.12 0.24 0  0.16 0.24 0  0.2 0.24 0  0.24 0.24 0  0.28 0.24 0  0.32 0.24 0  0.36 0.24 0  0.4 0.24 0  0.44 0.24 0  0.48 0.24 0  0.52 0.24 0  0.5600000000000001 0.24 0  0.6 0.24 0  0.64 0.24 0  0.68 0.24 0  0.72 0.24 0  0.76 0.24 0  0.8 0.24 0  0.84 0.24 0  0.88 0.24 0  0.92 0.24 0  0.96 0.24 0  1 0.24 0  0 0.28 0  0.04 0.28 0  0.08 0.28 0  0.12 0.28 0  0.16 0.28 0  0.2 0.28 0  0.24 0.28 0  0.28 0.28 0  0.32 0.28 0  0.36 0.28 0  0.4 0.28 0  0.44 0.28 0  0.48 0.28 0  0.52 0.28 0  0.5600000000000001 0.28 0  0.6 0.28 0  0.64 0.28 0  0.68 0.28 0  0.72 0.28 0  0.76 0.28 0  0.8 0.28 0  0.84 0.28 0  0.88 0.28 0  0.92 0.28 0  0.96 0.28 0  1 0.28 0  0 0.32 0  0.04 0.32 0  0.08 0.32 0  0.12 0.32 0  0.16 0.32 0  0.2 0.32 0  0.24 0.32 0  0.28 0.32 0  0.32 0.32 0  0.36 0.32 0  0.4 0.32 0  0.44 0.32 0  0.48 0.32 0  0.52 0.32 0  0.5600000000000001 0.32 0  0.6 0.32 0  0.64 0.32 0  0.68 0.32 0  0.72 0.32 0  0.76 0.32 0  0.8 0.32 0  0.84 0.32 0  0.88 0.32 0  0.92 0.32 0  0.96 0.32 0  1 0.32 0  0 0.36 0  0.04 0.36 0  0.08 0.36 0  0.12 0.36 0  0.16 0.36 0  0.2 0.36 0  0.24 0.36 0  0.28 0.36 0  0.32 0.36 0  0.36 0.36 0  0.4 0.36 0  0.44 0.36 0  0.48 0.36 0  0.52 0.36 0  0.5600000000000001 0.36 0  0.6 0.36 0  0.64 0.36 0  0.68 0.36 0  0.72 0.36 0  0.76 0.36 0  0.8 0.36 0  0.84 0.36 0  0.88 0.36 0  0.92 0.36 0  0.96 0.36 0  1 0.36 0  0 0.4 0  0.04 0.4 0  0.08 0.4 0  0.12 0.4 0  0.16 0.4 0  0.2 0.4 0  0.24 0.4 0  0.28 0.4 0  0.32 0.4 0  0.36 0.4 0  0.4 0.4 0  0.44 0.4 0  0.48 0.4 0  0.52 0.4 0  0.5600000000000001 0.4 0  0.6 0.4 0  0.64 0.4 0  0.68 0.4 0  0.72 0.4 0  0.76 0.4 0  0.8 0.4 0  0.84 0.4 0  0.88 0.4 0  0.92 0.4 0  0.96 0.4 0  1 0.4 0  0 0.44 0  0.04 0.44 0  0.08 0.44 0  0.12 0.44 0  0.16 0.44 0  0.2 0.44 0  0.24 0.44 0  0.28 0.44 0  0.32 0.44 0  0.36 0.44 0  0.4 0.44 0  0.44 0.44 0  0.48 0.44 0  0.52 0.44 0  0.5600000000000001 0.44 0  0.6 0.44 0  0.64 0.44 0  0.68 0.44 0  0.72 0.44 0  0.76 0.44 0  0.8 0.44 0  0.84 0.44 0  0.88 0.44 0  0.92 0.44 0  0.96 0.44 0  1 0.44 0  0 0.48 0  0.04 0.48 0  0.08 0.48 0  0.12 0.48 0  0.16 0.48 0  0.2 0.48 0  0.24 0.48 0  0.28 0.48 0  0.32 0.48 0  0.36 0.48 0  0.4 0.48 0  0.44 0.48 0  0.48 0.48 0  0.52 0.48 0  0.5600000000000001 0.48 0  0.6 0.48 0  0.64 0.48 0  0.68 0.48 0  0.72 0.48 0  0.76 0.48 0  0.8 0.48 0  0.84 0.48 0  0.88 0.48 0  0.92 0.48 0  0.96 0.48 0  1 0.48 0  0 0.52 0  0.04 0.52 0  0.08 0.52 0  0.12 0.52 0  0.16 0.52 0  0.2 0.52 0  0.24 0.52 0  0.28 0.52 0  0.32 0.52 0  0.36 0.52 0  0.4 0.52 0  0.44 0.52 0  0.48 0.52 0  0.52 0.52 0  0.5600000000000001 0.52 0  0.6 0.52 0  0.64 0.52 0  0.68 0.52 0  0.72 0.52 0  0.76 0.52 0  0.8 0.52 0  0.84 0.52 0  0.88 0.52 0  0.92 0.52 0  0.96 0.52 0  1 0.52 0  0 0.5600000000000001 0  0.04 0.5600000000000001 0  0.08 0.5600000000000001 0  0.12 0.5600000000000001 0  0.16 0.5600000000000001 0  0.2 0.5600000000000001 0  0.24 0.5600000000000001 0  0.28 0.5600000000000001 0  0.32 0.5600000000000001 0  0.36 0.5600000000000001 0  0.4 0.5600000000000001 0  0.44 0.5600000000000001 0  0.48 0.5600000000000001 0  0.52 0.5600000000000001 0  0.5600000000000001 0.5600000000000001 0  0.6 0.5600000000000001 0  0.64 0.5600000000000001 0  0.68 0.5600000000000001 0  0.72 0.5600000000000001 0  0.76 0.5600000000000001 0  0.8 0.5600000000000001 0  0.84 0.5600000000000001 0  0.88 0.5600000000000001 0  0.92 0.5600000000000001 0  0.96 0.5600000000000001 0  1 0.5600000000000001 0  0 0.6 0  0.04 0.6 0  0.08 0.6 0  0.12 0.6 0  0.16 0.6 0  0.2 0.6 0  0.24 0.6 0  0.28 0.6 0  0.32 0.6 0  0.36 0.6 0  0.4 0.6 0  0.44 0.6 0  0.48 0.6 0  0.52 0.6 0  0.5600000000000001 0.6 0  0.6 0.6 0  0.64 0.6 0  0.68 0.6 0  0.72 0.6 0  0.76 0.6 0  0.8 0.6 0  0.84 0.6 0  0.88 0.6 0  0.92 0.6 0  0.96 0.6 0  1 0.6 0  0 0.64 0  0.04 0.64 0  0.08 0.64 0  0.12 0.64 0  0.16 0.64 0  0.2 0.64 0  0.24 0.64 0  0.28 0.64 0  0.32 0.64 0  0.36 0.64 0  0.4 0.64 0  0.44 0.64 0  0.48 0.64 0  0.52 0.64 0  0.5600000000000001 0.64 0  0.6 0.64 0  0.64 0.64 0  0.68 0.64 0  0.72 0.64 0  0.76 0.64 0  0.8 0.64 0  0.84 0.64 0  0.88 0.64 0  0.92 0.64 0  0.96 0.64 0  1 0.64 0  0 0.68 0  0.04 0.68 0  0.08 0.68 0  0.12 0.68 0  0.16 0.68 0  0.2 0.68 0  0.24 0.68 0  0.28 0.68 0  0.32 0.68 0  0.36 0.68 0  0.4 0.68 0  0.44 0.68 0  0.48 0.68 0  0.52 0.68 0  0.5600000000000001 0.68 0  0.6 0.68 0  0.64 0.68 0  0.68 0.68 0  0.72 0.68 0  0.76 0.68 0  0.8 0.68 0  0.84 0.68 0  0.88 0.68 0  0.92 0.68 0  0.96 0.68 0  1 0.68 0  0 0.72 0  0.04 0.72 0  0.08 0.72 0  0.12 0.72 0  0.16 0.72 0  0.2 0.72 0  0.24 0.72 0  0.28 0.72 0  0.32 0.72 0  0.36 0.72 0  0.4 0.72 0  0.44 0.72 0  0.48 0.72 0  0.52 0.72 0  0.5600000000000001 0.72 0  0.6 0.72 0  0.64 0.72 0  0.68 0.72 0  0.72 0.72 0  0.76 0.72 0  0.8 0.72 0  0.84 0.72 0  0.88 0.72 0  0.92 0.72 0  0.96 0.72 0  1 0.72 0  0 0.76 0  0.04 0.76 0  0.08 0.76 0  0.12 0.76 0  0.16 0.76 0  0.2 0.76 0  0.24 0.76 0  0.28 0.76 0  0.32 0.76 0  0.36 0.76 0  0.4 0.76 0  0.44 0.76 0  0.48 0.76 0  0.52 0.76 0  0.5600000000000001 0.76 0  0.6 0.76 0  0.64 0.76 0  0.68 0.76 0  0.72 0.76 0  0.76 0.76 0  0.8 0.76 0  0.84 0.76 0  0.88 0.76 0  0.92 0.76 0  0.96 0.76 0  1 0.76 0  0 0.8 0  0.04 0.8 0  0.08 0.8 0  0.12 0.8 0  0.16 0.8 0  0.2 0.8 0  0.24 0.8 0  0.28 0.8 0  0.32 0.8 0  0.36 0.8 0  0.4 0.8 0  0.44 0.8 0  0.48 0.8 0  0.52 0.8 0  0.5600000000000001 0.8 0  0.6 0.8 0  0.64 0.8 0  0.68 0.8 0  0.72 0.8 0  0.76 0.8 0  0.8 0.8 0  0.84 0.8 0  0.88 0.8 0  0.92 0.8 0  0.96 0.8 0  1 0.8 0  0 0.84 0  0.04 0.84 0  0.08 0.84 0  0.12 0.84 0  0.16 0.84 0  0.2 0.84 0  0.24 0.84 0  0.28 0.84 0  0.32 0.84 0  0.36 0.84 0  0.4 0.84 0  0.44 0.84 0  0.48 0.84 0  0.52 0.84 0  0.5600000000000001 0.84 0  0.6 0.84 0  0.64 0.84 0  0.68 0.84 0  0.72 0.84 0  0.76 0.84 0  0.8 0.84 0  0.84 0.84 0  0.88 0.84 0  0.92 0.84 0  0.96 0.84 0  1 0.84 0  0 0.88 0  0.04 0.88 0  0.08 0.88 0  0.12 0.88 0  0.16 0.88 0  0.2 0.88 0  0.24 0.88 0  0.28 0.88 0  0.32 0.88 0  0.36 0.88 0  0.4 0.88 0  0.44 0.88 0  0.48 0.88 0  0.52 0.88 0  0.5600000000000001 0.88 0  0.6 0.88 0  0.64 0.88 0  0.68 0.88 0  0.72 0.88 0  0.76 0.88 0  0.8 0.88 0  0.84 0.88 0  0.88 0.88 0  0.92 0.88 0  0.96 0.88 0  1 0.88 0  0 0.92 0  0.04 0.92 0  0.08 0.92 0  0.12 0.92 0  0.16 0.92 0  0.2 0.92 0  0.24 0.92 0  0.28 0.92 0  0.32 0.92 0  0.36 0.92 0  0.4 0.92 0  0.44 0.92 0  0.48 0.92 0  0.52 0.92 0  0.5600000000000001 0.92 0  0.6 0.92 0  0.64 0.92 0  0.68 0.92 0  0.72 0.92 0  0.76 0.92 0  0.8 0.92 0  0.84 0.92 0  0.88 0.92 0  0.92 0.92 0  0.96 0.92 0  1 0.92 0  0 0.96 0  0.04 0.96 0  0.08 0.96 0  0.12 0.96 0  0.16 0.96 0  0.2 0.96 0  0.24 0.96 0  0.28 0.96 0  0.32 0.96 0  0.36 0.96 0  0.4 0.96 0  0.44 0.96 0  0.48 0.96 0  0.52 0.96 0  0.5600000000000001 0.96 0  0.6 0.96 0  0.64 0.96 0  0.68 0.96 0  0.72 0.96 0  0.76 0.96 0  0.8 0.96 0  0.84 0.96 0  0.88 0.96 0  0.92 0.96 0  0.96 0.96 0  1 0.96 0  0 1 0  0.04 1 0  0.08 1 0  0.12 1 0  0.16 1 0  0.2 1 0  0.24 1 0  0.28 1 0  0.32 1 0  0.36 1 0  0.4 1 0  0.44 1 0  0.48 1 0  0.52 1 0  0.5600000000000001 1 0  0.6 1 0  0.64 1 0  0.68 1 0  0.72 1 0  0.76 1 0  0.8 1 0  0.84 1 0  0.88 1 0  0.92 1 0  0.96 1 0  1 1 0  0 0 0.04  0.04 0 0.04  0.08 0 0.04  0.12 0 0.04  0.16 0 0.04  0.2 0 0.04  0.24 0 0.04  0.28 0 0.04  0.32 0 0.04  0.36 0 0.04  0.4 0 0.04  0.44 0 0.04  0.48 0 0.04  0.52 0 0.04  0.5600000000000001 0 0.04  0.6 0 0.04  0.64 0 0.04  0.68 0 0.04  0.72 0 0.04  0.76 0 0.04  0.8 0 0.04  0.84 0 0.04  0.88 0 0.04  0.92 0 0.04  0.96 0 0.04  1 0 0.04  0 0.04 0.04  0.04 0.04 0.04  0.08 0.04 0.04  0.12 0.04 0.04  0.16 0.04 0.04  0.2 0.04 0.04  0.24 0.04 0.04  0.28 0.04 0.04  0.32 0.04 0.04  0.36 0.04 0.04  0.4 0.04 0.04  0.44 0.04 0.04  0.48 0.04 0.04  0.52 0.04 0.04  0.5600000000000001 0.04 0.04  0.6 0.04 0.04  0.64 0.04 0.04  0.68 0.04 0.04  0.72 0.04 0.04  0.76 0.04 0.04  0.8 0.04 0.04  0.84 0.04 0.04  0.88 0.04 0.04  0.92 0.04 0.04  0.96 0.04 0.04  1 0.04 0.04  0 0.08 0.04  0.04 0.
[...]
<PointData  Scalars="f_14"> 
<DataArray  type="Float64"  Name="f_14"  format="ascii">1.5399999999999997e+01  1.5401599999999997e+01  1.5406399999999996e+01  1.5414399999999997e+01  1.5425599999999998e+01  1.5439999999999998e+01  1.5457599999999998e+01  1.5478399999999997e+01  1.5502399999999996e+01  1.5529599999999997e+01  1.5559999999999997e+01  1.5593599999999997e+01  1.5630399999999996e+01  1.5670399999999997e+01  1.5713599999999996e+01  1.5759999999999996e+01  1.5809599999999996e+01  1.5862399999999997e+01  1.5918399999999997e+01  1.5977599999999997e+01  1.6039999999999996e+01  1.6105599999999995e+01  1.6174399999999999e+01  1.6246399999999998e+01  1.6321599999999997e+01  1.6399999999999999e+01  1.5401599999999997e+01  1.5403199999999996e+01  1.5407999999999998e+01  1.5415999999999997e+01  1.5427199999999997e+01  1.5441599999999998e+01  1.5459199999999997e+01  1.5479999999999997e+01  1.5503999999999998e+01  1.5531199999999997e+01  1.5561599999999997e+01  1.5595199999999997e+01  1.5631999999999996e+01  1.5671999999999997e+01  1.5715199999999998e+01  1.5761599999999996e+01  1.5811199999999996e+01  1.5863999999999997e+01  1.5919999999999996e+01  1.5979199999999997e+01  1.6041599999999995e+01  1.6107199999999995e+01  1.6175999999999998e+01  1.6247999999999998e+01  1.6323199999999996e+01  1.6401599999999995e+01  1.5406399999999996e+01  1.5407999999999998e+01  1.5412799999999997e+01  1.5420799999999996e+01  1.5431999999999997e+01  1.5446399999999997e+01  1.5463999999999997e+01  1.5484799999999996e+01  1.5508799999999997e+01  1.5535999999999996e+01  1.5566399999999996e+01  1.5599999999999996e+01  1.5636799999999997e+01  1.5676799999999997e+01  1.5719999999999997e+01  1.5766399999999997e+01  1.5815999999999997e+01  1.5868799999999997e+01  1.5924799999999998e+01  1.5983999999999996e+01  1.6046399999999998e+01  1.6111999999999998e+01  1.6180799999999998e+01  1.6252799999999997e+01  1.6327999999999996e+01  1.6406399999999998e+01  1.5414399999999997e+01  1.5415999999999997e+01  1.5420799999999996e+01  1.5428799999999997e+01  1.5439999999999998e+01  1.5454399999999996e+01  1.5471999999999998e+01  1.5492799999999997e+01  1.5516799999999996e+01  1.5543999999999997e+01  1.5574399999999997e+01  1.5607999999999997e+01  1.5644799999999996e+01  1.5684799999999997e+01  1.5727999999999996e+01  1.5774399999999996e+01  1.5823999999999996e+01  1.5876799999999998e+01  1.5932799999999997e+01  1.5991999999999997e+01  1.6054399999999998e+01  1.6119999999999997e+01  1.6188799999999997e+01  1.6260799999999996e+01  1.6335999999999999e+01  1.6414399999999997e+01  1.5425599999999998e+01  1.5427199999999997e+01  1.5431999999999997e+01  1.5439999999999998e+01  1.5451199999999996e+01  1.5465599999999997e+01  1.5483199999999997e+01  1.5503999999999998e+01  1.5527999999999997e+01  1.5555199999999997e+01  1.5585599999999998e+01  1.5619199999999998e+01  1.5655999999999997e+01  1.5695999999999996e+01  1.5739199999999997e+01  1.5785599999999997e+01  1.5835199999999997e+01  1.5887999999999996e+01  1.5943999999999997e+01  1.6003199999999996e+01  1.6065599999999996e+01  1.6131199999999996e+01  1.6199999999999996e+01  1.6271999999999998e+01  1.6347199999999997e+01  1.6425599999999996e+01  1.5439999999999998e+01  1.5441599999999998e+01  1.5446399999999997e+01  1.5454399999999996e+01  1.5465599999999997e+01  1.5479999999999997e+01  1.5497599999999997e+01  1.5518399999999996e+01  1.5542399999999997e+01  1.5569599999999998e+01  1.5599999999999998e+01  1.5633599999999998e+01  1.5670399999999997e+01  1.5710399999999996e+01  1.5753599999999997e+01  1.5799999999999997e+01  1.5849599999999997e+01  1.5902399999999997e+01  1.5958399999999997e+01  1.6017599999999998e+01  1.6079999999999998e+01  1.6145599999999998e+01  1.6214399999999998e+01  1.6286399999999997e+01  1.6361599999999996e+01  1.6439999999999998e+01  1.5457599999999998e+01  1.5459199999999997e+01  1.5463999999999997e+01  1.5471999999999998e+01  1.5483199999999997e+01  1.5497599999999997e+01  1.5515199999999997e+01  1.5535999999999998e+01  1.5559999999999997e+01  1.5587199999999998e+01  1.5617599999999998e+01  1.5651199999999998e+01  1.5687999999999997e+01  1.5727999999999996e+01  1.5771199999999997e+01  1.5817599999999997e+01  1.5867199999999997e+01  1.5919999999999996e+01  1.5975999999999997e+01  1.6035199999999996e+01  1.6097599999999996e+01  1.6163199999999996e+01  1.6231999999999996e+01  1.6303999999999998e+01  1.6379199999999997e+01  1.6457599999999996e+01  1.5478399999999997e+01  1.5479999999999997e+01  1.5484799999999996e+01  1.5492799999999997e+01  1.5503999999999998e+01  1.5518399999999996e+01  1.5535999999999998e+01  1.5556799999999997e+01  1.5580799999999996e+01  1.5607999999999997e+01  1.5638399999999997e+01  1.5671999999999997e+01  1.5708799999999997e+01  1.5748799999999997e+01  1.5791999999999996e+01  1.5838399999999996e+01  1.5887999999999996e+01  1.5940799999999998e+01  1.5996799999999997e+01  1.6055999999999997e+01  1.6118399999999998e+01  1.6183999999999997e+01  1.6252799999999997e+01  1.6324799999999996e+01  1.6399999999999999e+01  1.6478399999999997e+01  1.5502399999999996e+01  1.5503999999999998e+01  1.5508799999999997e+01  1.5516799999999996e+01  1.5527999999999997e+01  1.5542399999999997e+01  1.5559999999999997e+01  1.5580799999999996e+01  1.5604799999999997e+01  1.5631999999999996e+01  1.5662399999999996e+01  1.5695999999999996e+01  1.5732799999999997e+01  1.5772799999999997e+01  1.5815999999999997e+01  1.5862399999999997e+01  1.5911999999999997e+01  1.5964799999999997e+01  1.6020799999999998e+01  1.6079999999999998e+01  1.6142399999999999e+01  1.6207999999999998e+01  1.6276799999999998e+01  1.6348799999999997e+01  1.6423999999999996e+01  1.6502399999999998e+01  1.5529599999999997e+01  1.5531199999999997e+01  1.5535999999999996e+01  1.5543999999999997e+01  1.5555199999999997e+01  1.5569599999999998e+01  1.5587199999999998e+01  1.5607999999999997e+01  1.5631999999999996e+01  1.5659199999999997e+01  1.5689599999999997e+01  1.5723199999999997e+01  1.5759999999999996e+01  1.5799999999999997e+01  1.5843199999999996e+01  1.5889599999999996e+01  1.5939199999999996e+01  1.5991999999999997e+01  1.6047999999999998e+01  1.6107199999999995e+01  1.6169599999999996e+01  1.6235199999999995e+01  1.6303999999999995e+01  1.6375999999999998e+01  1.6451199999999996e+01  1.6529599999999995e+01  1.5559999999999997e+01  1.5561599999999997e+01  1.5566399999999996e+01  1.5574399999999997e+01  1.5585599999999996e+01  1.5599999999999998e+01  1.5617599999999996e+01  1.5638399999999997e+01  1.5662399999999996e+01  1.5689599999999997e+01  1.5719999999999997e+01  1.5753599999999997e+01  1.5790399999999996e+01  1.5830399999999997e+01  1.5873599999999996e+01  1.5919999999999996e+01  1.5969599999999996e+01  1.6022399999999998e+01  1.6078399999999995e+01  1.6137599999999996e+01  1.6199999999999996e+01  1.6265599999999996e+01  1.6334399999999995e+01  1.6406399999999998e+01  1.6481599999999997e+01  1.6559999999999995e+01  1.5593599999999997e+01  1.5595199999999997e+01  1.5599999999999996e+01  1.5607999999999997e+01  1.5619199999999998e+01  1.5633599999999998e+01  1.5651199999999998e+01  1.5671999999999997e+01  1.5695999999999996e+01  1.5723199999999997e+01  1.5753599999999997e+01  1.5787199999999997e+01  1.5823999999999996e+01  1.5863999999999997e+01  1.5907199999999996e+01  1.5953599999999996e+01  1.6003199999999996e+01  1.6055999999999997e+01  1.6111999999999998e+01  1.6171199999999995e+01  1.6233599999999996e+01  1.6299199999999995e+01  1.6367999999999995e+01  1.6439999999999998e+01  1.6515199999999997e+01  1.6593599999999995e+01  1.5630399999999996e+01  1.5631999999999996e+01  1.5636799999999997e+01  1.5644799999999996e+01  1.5655999999999997e+01  1.5670399999999997e+01  1.5687999999999997e+01  1.5708799999999997e+01  1.5732799999999997e+01  1.5759999999999996e+01  1.5790399999999996e+01  1.5823999999999996e+01  1.5860799999999998e+01  1.5900799999999997e+01  1.5943999999999997e+01  1.5990399999999998e+01  1.6039999999999996e+01  1.6092799999999997e+01  1.6148799999999998e+01  1.6207999999999998e+01  1.6270399999999995e+01  1.6335999999999999e+01  1.6404799999999998e+01  1.6476799999999997e+01  1.6551999999999996e+01  1.6630399999999998e+01  1.5670399999999997e+01  1.5671999999999997e+01  1.5676799999999997e+01  1.5684799999999997e+01  1.5695999999999996e+01  1.5710399999999996e+01  1.5727999999999996e+01  1.5748799999999997e+01  1.5772799999999997e+01  1.5799999999999997e+01  1.5830399999999997e+01  1.5863999999999997e+01  1.5900799999999997e+01  1.5940799999999996e+01  1.5983999999999996e+01  1.6030399999999997e+01  1.6079999999999998e+01  1.6132799999999996e+01  1.6188799999999997e+01  1.6247999999999998e+01  1.6310399999999998e+01  1.6375999999999998e+01  1.6444799999999997e+01  1.6516799999999996e+01  1.6591999999999999e+01  1.6670399999999997e+01  1.5713599999999996e+01  1.5715199999999998e+01  1.5719999999999997e+01  1.5727999999999996e+01  1.5739199999999997e+01  1.5753599999999997e+01  1.5771199999999997e+01  1.5791999999999996e+01  1.5815999999999997e+01  1.5843199999999996e+01  1.5873599999999996e+01  1.5907199999999996e+01  1.5943999999999997e+01  1.5983999999999996e+01  1.6027199999999997e+01  1.6073599999999995e+01  1.6123199999999997e+01  1.6175999999999998e+01  1.6231999999999996e+01  1.6291199999999996e+01  1.6353599999999997e+01  1.6419199999999996e+01  1.6487999999999996e+01  1.6559999999999995e+01  1.6635199999999998e+01  1.6713599999999996e+01  1.5759999999999996e+01  1.5761599999999998e+01  1.5766399999999997e+01  1.5774399999999996e+01  1.5785599999999997e+01  1.5799999999999997e+01  1.5817599999999997e+01  1.5838399999999996e+01  1.5862399999999997e+01  1.5889599999999996e+01  1.5919999999999996e+01  1.5953599999999996e+01  1.5990399999999998e+01  1.6030399999999997e+01  1.6073599999999995e+01  1.6119999999999997e+01  1.6169599999999996e+01  1.6222399999999997e+01  1.6278399999999998e+01  1.6337599999999995e+01  1.6399999999999999e+01  1.6465599999999995e+01  1.6534399999999998e+01  1.6606399999999997e+01  1.6681599999999996e+01  1.6759999999999998e+01  1.5809599999999996e+01  1.5811199999999996e+01  1.5815999999999997e+01  1.5823999999999996e+01  1.5835199999999997e+01  1.5849599999999997e+01  1.5867199999999997e+01  1.5887999999999996e+01  1.5911999999999997e+01  1.5939199999999996e+01  1.5969599999999996e+01  1.6003199999999996e+01  1.6039999999999996e+01  1.6079999999999998e+01  1.6123199999999997e+01  1.6169599999999996e+01  1.6219199999999997e+01  1.6271999999999998e+01  1.6327999999999996e+01  1.6387199999999996e+01  1.6449599999999997e+01  1.6515199999999997e+01  1.6583999999999996e+01  1.6655999999999999e+01  1.6731199999999998e+01  1.6809599999999996e+01  1.5862399999999997e+01  1.5863999999999997e+01  1.5868799999999997e+01  1.5876799999999998e+01  1.5887999999999996e+01  1.5902399999999997e+01  1.5919999999999996e+01  1.5940799999999998e+01  1.5964799999999997e+01  1.5991999999999997e+01  1.6022399999999998e+01  1.6055999999999997e+01  1.6092799999999997e+01  1.6132799999999996e+01  1.6175999999999998e+01  1.6222399999999997e+01  1.6271999999999998e+01  1.6324799999999996e+01  1.6380799999999997e+01  1.6439999999999998e+01  1.6502399999999998e+01  1.6567999999999998e+01  1.6636799999999997e+01  1.6708799999999997e+01  1.6783999999999995e+01  1.6862399999999997e+01  1.5918399999999997e+01  1.5919999999999996e+01  1.5924799999999998e+01  1.5932799999999997e+01  1.5943999999999997e+01  1.5958399999999997e+01  1.5975999999999997e+01  1.5996799999999997e+01  1.6020799999999998e+01  1.6047999999999998e+01  1.6078399999999998e+01  1.6111999999999998e+01  1.6148799999999998e+01  1.6188799999999997e+01  1.6231999999999996e+01  1.6278399999999998e+01  1.6327999999999996e+01  1.6380799999999997e+01  1.6436799999999998e+01  1.6495999999999995e+01  1.6558399999999999e+01  1.6623999999999995e+01  1.6692799999999998e+01  1.6764799999999997e+01  1.6839999999999996e+01  1.6918399999999998e+01  1.5977599999999997e+01  1.5979199999999997e+01  1.5983999999999996e+01  1.5991999999999997e+01  1.6003199999999996e+01  1.6017599999999998e+01  1.6035199999999996e+01  1.6055999999999997e+01  1.6079999999999998e+01  1.6107199999999995e+01  1.6137599999999996e+01  1.6171199999999995e+01  1.6207999999999998e+01  1.6247999999999998e+01  1.6291199999999996e+01  1.6337599999999995e+01  1.6387199999999996e+01  1.6439999999999998e+01  1.6495999999999995e+01  1.6555199999999996e+01  1.6617599999999996e+01  1.6683199999999996e+01  1.6751999999999995e+01  1.6823999999999998e+01  1.6899199999999997e+01  1.6977599999999995e+01  1.6039999999999996e+01  1.6041599999999995e+01  1.6046399999999998e+01  1.6054399999999998e+01  1.6065599999999996e+01  1.6079999999999998e+01  1.6097599999999996e+01  1.6118399999999998e+01  1.6142399999999999e+01  1.6169599999999996e+01  1.6199999999999996e+01  1.6233599999999996e+01  1.6270399999999995e+01  1.6310399999999998e+01  1.6353599999999997e+01  1.6399999999999999e+01  1.6449599999999997e+01  1.6502399999999998e+01  1.6558399999999999e+01  1.6617599999999996e+01  1.6679999999999996e+01  1.6745599999999996e+01  1.6814399999999996e+01  1.6886399999999998e+01  1.6961599999999997e+01  1.7039999999999996e+01  1.6105599999999995e+01  1.6107199999999995e+01  1.6111999999999995e+01  1.6119999999999997e+01  1.6131199999999996e+01  1.6145599999999998e+01  1.6163199999999996e+01  1.6183999999999997e+01  1.6207999999999998e+01  1.6235199999999995e+01  1.6265599999999996e+01  1.6299199999999995e+01  1.6335999999999999e+01  1.6375999999999998e+01  1.6419199999999996e+01  1.6465599999999995e+01  1.6515199999999997e+01  1.6567999999999998e+01  1.6623999999999995e+01  1.6683199999999996e+01  1.6745599999999996e+01  1.6811199999999996e+01  1.6879999999999995e+01  1.6951999999999998e+01  1.7027199999999997e+01  1.7105599999999995e+01  1.6174399999999999e+01  1.6175999999999998e+01  1.6180799999999998e+01  1.6188799999999997e+01  1.6199999999999996e+01  1.6214399999999998e+01  1.6231999999999996e+01  1.6252799999999997e+01  1.6276799999999998e+01  1.6303999999999995e+01  1.6334399999999995e+01  1.6367999999999995e+01  1.6404799999999998e+01  1.6444799999999997e+01  1.6487999999999996e+01  1.6534399999999998e+01  1.6583999999999996e+01  1.6636799999999997e+01  1.6692799999999998e+01  1.6751999999999995e+01  1.6814399999999996e+01  1.6879999999999995e+01  1.6948799999999999e+01  1.7020799999999998e+01  1.7095999999999997e+01  1.7174399999999999e+01  1.6246399999999998e+01  1.6247999999999998e+01  1.6252799999999997e+01  1.6260799999999996e+01  1.6271999999999998e+01  1.6286399999999997e+01  1.6303999999999998e+01  1.6324799999999996e+01  1.6348799999999997e+01  1.6375999999999998e+01  1.6406399999999998e+01  1.6439999999999998e+01  1.6476799999999997e+01  1.6516799999999996e+01  1.6559999999999995e+01  1.6606399999999997e+01  1.6655999999999999e+01  1.6708799999999997e+01  1.6764799999999997e+01  1.6823999999999998e+01  1.6886399999999998e+01  1.6951999999999998e+01  1.7020799999999998e+01  1.7092799999999997e+01  1.7167999999999996e+01  1.7246399999999998e+01  1.6321599999999997e+01  1.6323199999999996e+01  1.6327999999999996e+01  1.6335999999999999e+01  1.6347199999999997e+01  1.6361599999999996e+01  1.6379199999999997e+01  1.6399999999999999e+01  1.6423999999999996e+01  1.6451199999999996e+01  1.6481599999999997e+01  1.6515199999999997e+01  1.6551999999999996e+01  1.6591999999999999e+01  1.6635199999999998e+01  1.6681599999999996e+01  1.6731199999999998e+01  1.6783999999999999e+01  1.6839999999999996e+01  1.6899199999999997e+01  1.6961599999999997e+01  1.7027199999999997e+01  1.7095999999999997e+01  1.7167999999999996e+01  1.7243199999999998e+01  1.7321599999999997e+01  1.6399999999999999e+01  1.6401599999999995e+01  1.6406399999999998e+01  1.6414399999999997e+01  1.6425599999999996e+01  1.6439999999999998e+01  1.6457599999999996e+01  1.6478399999999997e+01  1.6502399999999998e+01  1.6529599999999995e+01  1.6559999999999995e+01  1.6593599999999995e+01  1.6630399999999998e+01  1.6670399999999997e+01  1.6713599999999996e+01  1.6759999999999998e+01  1.6809599999999996e+01  1.6862399999999997e+01  1.6918399999999998e+01  1.6977599999999995e+01  1.7039999999999996e+01  1.7105599999999995e+01  1.7174399999999999e+01  1.7246399999999998e+01  1.7321599999999997e+01  1.7399999999999999e+01  1.5403199999999996e+01  1.5404799999999996e+01  1.5409599999999998e+01  1.5417599999999997e+01  1.5428799999999997e+01  1.5443199999999997e+01  1.5460799999999997e+01  1.5481599999999997e+01  1.5505599999999998e+01  1.5532799999999996e+01  1.5563199999999997e+01  1.5596799999999996e+01  1.5633599999999998e+01  1.5673599999999997e+01  1.5716799999999997e+01  1.5763199999999998e+01  1.5812799999999998e+01  1.5865599999999997e+01  1.5921599999999996e+01  1.5980799999999997e+01  1.6043199999999999e+01  1.6108799999999995e+01  1.6177599999999998e+01  1.6249599999999997e+01  1.6324799999999996e+01  1.6403199999999998e+01  1.5404799999999996e+01  1.5406399999999998e+01  1.5411199999999997e+01  1.5419199999999996e+01  1.5430399999999997e+01  1.5444799999999997e+01  1.5462399999999997e+01  1.5483199999999997e+01  1.5507199999999997e+01  1.5534399999999996e+01  1.5564799999999996e+01  1.5598399999999996e+01  1.5635199999999998e+01  1.5675199999999997e+01  1.5718399999999997e+01  1.5764799999999997e+01  1.5814399999999997e+01  1.5867199999999997e+01  1.5923199999999998e+01  1.5982399999999997e+01  1.6044799999999999e+01  1.6110399999999998e+01  1.6179199999999998e+01  1.6251199999999997e+01  1.6326399999999996e+01  1.6404799999999998e+01  1.5409599999999998e+01  1.5411199999999997e+01  1.5415999999999997e+01  1.5423999999999996e+01  1.5435199999999996e+01  1.5449599999999997e+01  1.5467199999999997e+01  1.5487999999999996e+01  1.5511999999999997e+01  1.5539199999999997e+01  1.5569599999999998e+01  1.5603199999999998e+01  1.5639999999999997e+01  1.5679999999999996e+01  1.5723199999999997e+01  1.5769599999999997e+01  1.5819199999999997e+01  1.5871999999999996e+01  1.5927999999999997e+01  1.5987199999999996e+01  1.6049599999999998e+01  1.6115199999999998e+01  1.6183999999999997e+01  1.6255999999999997e+01  1.6331199999999995e+01  1.6409599999999998e+01  1.5417599999999997e+01  1.5419199999999996e+01  1.5423999999999996e+01  1.5431999999999997e+01  1.5443199999999997e+01  1.5457599999999998e+01  1.5475199999999997e+01  1.5495999999999997e+01  1.5519999999999996e+01  1.5547199999999997e+01  1.5577599999999997e+01  1.5611199999999997e+01  1.5647999999999996e+01  1.5687999999999997e+01  1.5731199999999998e+01  1.5777599999999996e+01  1.5827199999999998e+01  1.5879999999999997e+01  1.5935999999999996e+01  1.5995199999999997e+01  1.6057599999999997e+01  1.6123199999999997e+01  1.6191999999999997e+01  1.6263999999999996e+01  1.6339199999999998e+01  1.6417599999999997e+01  1.5428799999999997e+01  1.5430399999999997e+01  1.5435199999999996e+01  1.5443199999999997e+01  1.5454399999999996e+01  1.5468799999999996e+01  1.5486399999999996e+01  1.5507199999999997e+01  1.5531199999999997e+01  1.5558399999999997e+01  1.5588799999999997e+01  1.5622399999999997e+01  1.5659199999999997e+01  1.5699199999999998e+01  1.5742399999999996e+01  1.5788799999999997e+01  1.5838399999999996e+01  1.5891199999999998e+01  1.5947199999999997e+01  1.6006399999999996e+01  1.6068799999999996e+01  1.6134399999999996e+01  1.6203199999999995e+01  1.6275199999999998e+01  1.6350399999999997e+01  1.6428799999999995e+01  1.5443199999999997e+01  1.5444799999999997e+01  1.5449599999999997e+01  1.5457599999999998e+01  1.5468799999999996e+01  1.5483199999999997e+01  1.5500799999999996e+01  1.5521599999999998e+01  1.5545599999999997e+01  1.5572799999999997e+01  1.5603199999999998e+01  1.5636799999999997e+01  1.5673599999999997e+01  1.5713599999999996e+01  1.5756799999999997e+01  1.5803199999999997e+01  1.5852799999999997e+01  1.5905599999999996e+01  1.5961599999999997e+01  1.6020799999999998e+01  1.6083199999999998e+01  1.6148799999999998e+01  1.6217599999999997e+01  1.6289599999999997e