<?xml version="1.0"?>
<VTKFile type="UnstructuredGrid"  version="0.1"  >
<UnstructuredGrid>
<Piece  NumberOfPoints="1834" NumberOfCells="8794">
<Points>
<DataArray  type="Float64"  NumberOfComponents="3"  format="ascii">0.5 -0.5 0.5  0.5 0.5 0.5  0.5 -0.4 0.5  0.5 -0.3 0.5  0.5 -0.2 0.5  0.5 -0.1 0.5  0.5 0 0.5  0.5 0.1 0.5  0.5 0.2 0.5  0.5 0.3 0.5  0.5 0.4 0.5  -0.5 0.5 0.5  0.4 0.5 0.5  0.3 0.5 0.5  0.2 0.5 0.5  0.1 0.5 0.5  0 0.5 0.5  -0.1 0.5 0.5  -0.2 0.5 0.5  -0.3 0.5 0.5  -0.4 0.5 0.5  -0.5 -0.5 0.5  -0.5 0.4 0.5  -0.5 0.3 0.5  -0.5 0.2 0.5  -0.5 0.1 0.5  -0.5 0 0.5  -0.5 -0.1 0.5  -0.5 -0.2 0.5  -0.5 -0.3 0.5  -0.5 -0.4 0.5  -0.4 -0.5 0.5  -0.3 -0.5 0.5  -0.2 -0.5 0.5  -0.1 -0.5 0.5  0 -0.5 0.5  0.1 -0.5 0.5  0.2 -0.5 0.5  0.3 -0.5 0.5  0.4 -0.5 0.5  0.419439713943 -0.352956616782 0.5  0.411788168163 -0.253617883331 0.5  0.411592476372 -0.151503001903 0.5  0.412064402791 -0.0506649627876 0.5  0.412969195033 0.0497328761656 0.5  0.413243639718 0.150118744261 0.5  0.412815219514 0.252303815476 0.5  0.419939482148 0.352405476536 0.5  0.354518382781 0.417957543829 0.5  0.25485168685 0.410275850938 0.5  0.152257785039 0.41046201047 0.5  0.0510192353881 0.411344594686 0.5  -0.049605772047 0.412564020504 0.5  -0.150085042757 0.413049400144 0.5  -0.252296323071 0.412735866901 0.5  -0.352402787904 0.419912699948 0.5  -0.417955984189 0.354500149797 0.5  -0.410279785342 0.254828247177 0.5  -0.410472910799 0.152239198373 0.5  -0.411354325204 0.0510083850205 0.5  -0.412568693086 -0.0496103814122 0.5  -0.41305127381 -0.150086746807 0.5  -0.412736531479 -0.25229688632 0.5  -0.419912892106 -0.352402942415 0.5  -0.354500263601 -0.417956069456 0.5  -0.254828417217 -0.410279898538 0.5  -0.152239366406 -0.410473006818 0.5  -0.051007355644 -0.411355236549 0.5  0.0499831575565 -0.412271186383 0.5  0.151292675829 -0.412118258621 0.5  0.2540902774 -0.411475665466 0.5  0.354031056477 -0.418761326057 0.5  0.434694154084 -0.434343588568 0.5  0.434891572986 0.434072604073 0.5  -0.434071754419 0.434882569949 0.5  -0.434882631141 -0.434071802374 0.5  0.315479405701 -0.316140375205 0.5  0.320673354348 -0.204243957385 0.5  0.320943230006 -0.101508950159 0.5  0.324855242292 0.000312880184644 0.5  0.326864466248 0.101055359492 0.5  0.327203152105 0.201778260581 0.5  0.317765838322 0.313668065795 0.5  0.205722371552 0.318987202358 0.5  0.102714517976 0.319487834967 0.5  0.000435647953787 0.323723734161 0.5  -0.100727905192 0.326196493407 0.5  -0.201690008572 0.326908087422 0.5  -0.31365808056 0.317667099288 0.5  -0.318996394835 0.20560727835 0.5  -0.319519393723 0.102609341763 0.5  -0.323769489006 0.000378250757027 0.5  -0.326225848857 -0.100752518809 0.5  -0.326919133969 -0.201698120067 0.5  -0.317669808317 -0.313659984158 0.5  -0.205611576745 -0.318998918796 0.5  -0.102538588714 -0.319449507241 0.5  6.694831213780001e-05 -0.323294690801 0.5  0.10188357802 -0.325103211387 0.5  0.203361537468 -0.325565753905 0.5  0.242760789531 -0.248182067889 0.5  0.219458782016 -0.153741309523 0.5  0.235028268578 -0.0464774060972 0.5  0.239231739346 0.0533933322183 0.5  0.242559373059 0.153690969016 0.5  0.250023058053 0.241227526032 0.5  0.155625003951 0.218228763486 0.5  0.0476859872759 0.234031658796 0.5  -0.0529353985573 0.23869153927 0.5  -0.153580966687 0.242220247898 0.5  -0.241191176807 0.249789435854 0.5  -0.218347794999 0.155540961662 0.5  -0.234333763473 0.0479145657906 0.5  -0.239000651936 -0.0525176223144 0.5  -0.242372415876 -0.153340972077 0.5  -0.249826692827 -0.241147449113 0.5  -0.155565015697 -0.217815090051 0.5  -0.0476487880629 -0.233062006294 0.5  0.0532432204009 -0.237103050605 0.5  0.154638232054 -0.240369557031 0.5  0.154000913923 -0.080114200504 0.5  0.149276241101 0.0067662429962 0.5  0.153998632219 0.107655627088 0.5  0.0812474989563 0.154108401291 0.5  -0.00632993240382 0.149700204778 0.5  -0.107707239455 0.154286906513 0.5  -0.15450106388 0.0819751222416 0.5  -0.150106431205 -0.00513185304076 0.5  -0.154477449922 -0.106521751312 0.5  -0.08200952136469999 -0.152686495276 0.5  0.00546710372365 -0.147774730994 0.5  0.0589199672559 -0.0528835672366 0.5  0.0535775973389 0.0603294243399 0.5  -0.0603380379201 0.0549074384917 0.5  -0.0548234749556 -0.0584143776621 0.5  0.107621369896 -0.151997735982 0.5  -0.000665987070238 0.000984729483201 0.5  0.5 0.5 -0.5  0.5 -0.5 -0.5  0.5 0.4 -0.5  0.5 0.3 -0.5  0.5 0.2 -0.5  0.5 0.1 -0.5  0.5 0 -0.5  0.5 -0.1 -0.5  0.5 -0.2 -0.5  0.5 -0.3 -0.5  0.5 -0.4 -0.5  -0.5 -0.5 -0.5  0.4 -0.5 -0.5  0.3 -0.5 -0.5  0.2 -0.5 -0.5  0.1 -0.5 -0.5  0 -0.5 -0.5  -0.1 -0.5 -0.5  -0.2 -0.5 -0.5  -0.3 -0.5 -0.5  -0.4 -0.5 -0.5  -0.5 0.5 -0.5  -0.5 -0.4 -0.5  -0.5 -0.3 -0.5  -0.5 -0.2 -0.5  -0.5 -0.1 -0.5  -0.5 0 -0.5  -0.5 0.1 -0.5  -0.5 0.2 -0.5  -0.5 0.3 -0.5  -0.5 0.4 -0.5  -0.4 0.5 -0.5  -0.3 0.5 -0.5  -0.2 0.5 -0.5  -0.1 0.5 -0.5  0 0.5 -0.5  0.1 0.5 -0.5  0.2 0.5 -0.5  0.3 0.5 -0.5  0.4 0.5 -0.5  0.419439713943 0.352956616782 -0.5  0.412340767537 0.253629041326 -0.5  0.412973974806 0.151530896891 -0.5  0.413261701434 0.0506891384432 -0.5  0.413455277815 -0.0497230612626 -0.5  0.413393387326 -0.150115720582 -0.5  0.412854845209 -0.25230301536 -0.5  0.41994830365 -0.352405298414 -0.5  0.354522070251 -0.417957469373 -0.5  0.254855838421 -0.41027576711 -0.5  0.15226052837 -0.410461955077 -0.5  0.0510206314539 -0.411344566496 -0.5  -0.0496052834047 -0.412564010637 -0.5  -0.150084902006 -0.413049397302 -0.5  -0.252296287194 -0.412735866176 -0.5  -0.352402780068 -0.41991269979 -0.5  -0.417955981027 -0.354500149734 -0.5  -0.410279781894 -0.254828247107 -0.5  -0.410472908577 -0.152239198328 -0.5  -0.411354324085 -0.051008384998 -0.5  -0.412568692696 0.04961038142 -0.5  -0.413051273698 0.150086746809 -0.5  -0.41273653145 0.25229688632 -0.5  -0.4199128921 0.352402942415 -0.5  -0.354500263598 0.417956069456 -0.5  -0.254828417214 0.410279898538 -0.5  -0.152239366404 0.410473006818 -0.5  -0.0510916149015 0.411387334861 -0.5  0.0497826808724 0.411820443097 -0.5  0.151136188048 0.410947938855 -0.5  0.254043295319 0.410673607603 -0.5  0.35402322613 0.418627649747 -0.5  0.434692588015 0.434316853306 -0.5  0.43489407478 -0.434072553557 -0.5  -0.434071752219 -0.434882569905 -0.5  -0.43488263114 0.434071802374 -0.5  0.316661813657 0.314866241311 -0.5  0.326291897138 0.203387914836 -0.5  0.326943778033 0.102262655974 -0.5  0.327209524504 0.000900502949663 -0.5  0.327639928495 -0.100517135614 -0.5  0.327434551943 -0.20161073974 -0.5  0.317820495518 -0.313632876081 -0.5  0.20576459502 -0.318937739761 -0.5  0.102743757064 -0.319439369658 -0.5  0.000446546856563 -0.323703750133 -0.5  -0.100724645733 -0.32619032768 -0.5  -0.201689148311 -0.326906464156 -0.5  -0.313657906523 -0.317666782183 -0.5  -0.318996228821 -0.205606932118 -0.5  -0.319519255615 -0.1026090328 -0.5  -0.323769435435 -0.000378128497797 -0.5  -0.326225832807 0.100752555697 -0.5  -0.326919129801 0.201698129653 -0.5  -0.317669807504 0.313659986018 -0.5  -0.2056115759 0.318998920776 -0.5  -0.102833495382 0.319561853083 -0.5  -0.00117962814457 0.322337976402 -0.5  0.100685114698 0.320114342826 -0.5  0.204030647418 0.31999677881 -0.5  0.24850087897 0.242576168469 -0.5  0.241797251318 0.154657395158 -0.5  0.240411599631 0.052645005443 -0.5  0.240840712263 -0.0506147718623 -0.5  0.243080772628 -0.152777381658 -0.5  0.250213074724 -0.240957604476 -0.5  0.155792432781 -0.217690629602 -0.5  0.0477209477063 -0.23374502665 -0.5  -0.0529357485731 -0.238553355167 -0.5  -0.153582159788 -0.242177888047 -0.5  -0.241191073048 -0.249780273608 -0.5  -0.218350974245 -0.155509090276 -0.5  -0.234363132872 -0.0478636370455 -0.5  -0.239063200021 0.0525939244403 -0.5  -0.242413271049 0.153386644099 -0.5  -0.249834862144 0.241156587519 -0.5  -0.155975423049 0.218016322494 -0.5  -0.0500197703241 0.232741531374 -0.5  0.047077325879 0.233016827536 -0.5  0.153945258048 0.218799309794 -0.5  0.15361406773 0.106707927619 -0.5  0.149538118503 0.000816353516739 -0.5  0.154313954777 -0.105157256303 -0.5  0.0812020076059 -0.152865373398 -0.5  -0.0065204190238 -0.148841966031 -0.5  -0.107810756753 -0.153949424888 -0.5  -0.15464415875 -0.081671242689 -0.5  -0.150569981086 0.00563947599572 -0.5  -0.155159400782 0.10701377107 -0.5  -0.08429175664040001 0.153282442566 -0.5  -0.00174061752091 0.14858784649 -0.5  0.0535285582048 0.0590390542415 -0.5  0.0525208879224 -0.0572027101925 -0.5  -0.0611717203382 -0.0535760091727 -0.5  -0.0575079475011 0.0602079231008 -0.5  0.081284918468 0.153230193136 -0.5  -0.00315755542805 0.00211706449428 -0.5  -0.5 -0.5 0.4  -0.5 -0.5 0.3  -0.5 -0.5 0.2  -0.5 -0.5 0.1  -0.5 -0.5 0  -0.5 -0.5 -0.1  -0.5 -0.5 -0.2  -0.5 -0.5 -0.3  -0.5 -0.5 -0.4  0.5 -0.5 0.4  0.5 -0.5 0.3  0.5 -0.5 0.2  0.5 -0.5 0.1  0.5 -0.5 0  0.5 -0.5 -0.1  0.5 -0.5 -0.2  0.5 -0.5 -0.3  0.5 -0.5 -0.4  -0.408513433489 -0.5 0.366343772186  -0.407905170046 -0.5 0.257764272938  -0.409765146268 -0.5 0.153307222793  -0.411005578171 -0.5 0.0515084277634  -0.412217294421 -0.5 -0.0495984566315  -0.412495612572 -0.5 -0.150725181082  -0.412116284821 -0.5 -0.253192942338  -0.41937778705 -0.5 -0.353156733944  0.352967676169 -0.5 -0.419443853435  0.253721559336 -0.5 -0.412298418233  0.151843280816 -0.5 -0.41278953647  0.051241387937 -0.5 -0.412995119784  -0.0495112783894 -0.5 -0.412465454684  -0.150953776399 -0.5 -0.411222438159  -0.253945543898 -0.5 -0.410843136643  -0.353968845168 -0.5 -0.418741962734  0.419437251781 -0.5 0.35296843465  0.412289570698 -0.5 0.253722198635  0.4127828949 -0.5 0.151842769144  0.413024028735 -0.5 0.0512499036563  0.412641766162 -0.5 -0.0494502416577  0.411482252342 -0.5 -0.150852338683  0.41093676035 -0.5 -0.253913525607  0.41868125754 -0.5 -0.35400470569  -0.333345183307 -0.5 0.420052097494  -0.248862763975 -0.5 0.413742759355  -0.150060842309 -0.5 0.413981137146  -0.0503328791054 -0.5 0.41391517136  0.0498763123405 -0.5 0.413169339221  0.150995084779 -0.5 0.41170911257  0.253940540795 -0.5 0.411003175331  0.35400347381 -0.5 0.418693144109  -0.434669326444 -0.5 -0.434379739336  0.4343297
[...]
<PointData  Scalars="f_63"> 
<DataArray  type="Float64"  Name="f_63"  format="ascii">1.8546138097278025e-01  6.5021905737188557e-01  2.7922039309630164e-01  3.6171688977775240e-01  4.3276863184363035e-01  4.9252488347688861e-01  5.4161880639181226e-01  5.8126797194018076e-01  6.1189451368045999e-01  6.3283981675492951e-01  6.4596556288706353e-01  6.4958990619859114e-01  6.4946696607454846e-01  6.5013693558589236e-01  6.4998589344088487e-01  6.5017587318358006e-01  6.4991058706047289e-01  6.4976192442473713e-01  6.5009536921862876e-01  6.4992893291710219e-01  6.5001069234212983e-01  1.8560612174622529e-01  6.4536021819896994e-01  6.3321501709598049e-01  6.1172181781950785e-01  5.8178855641977856e-01  5.4169509275648975e-01  4.9251924240882589e-01  4.3231873745707033e-01  3.6153193059821309e-01  2.7969541688116145e-01  1.8452663685066831e-01  1.8575602137658268e-01  1.8555016767185700e-01  1.8577098325906879e-01  1.8516709416366167e-01  1.8536243620336257e-01  1.8554649248672914e-01  1.8514726010007471e-01  1.8543699006418454e-01  3.1942955750465879e-01  3.9601939843196970e-01  4.6342371845731456e-01  5.1793367503048549e-01  5.6307067942793820e-01  5.9791174882694231e-01  6.2440887826937197e-01  6.4027812375700477e-01  6.4735131433220050e-01  6.4669921390241469e-01  6.4677903885950228e-01  6.4676597402408809e-01  6.4646591586434954e-01  6.4664441840413323e-01  6.4678004666431121e-01  6.4664652628875841e-01  6.4089090478030153e-01  6.2453749582144569e-01  5.9859831703436261e-01  5.6336654260437935e-01  5.1822560169397647e-01  4.6361383415401169e-01  3.9675835778803648e-01  3.1947796917068433e-01  2.6291571311712275e-01  2.7014982670320281e-01  2.6996774207359603e-01  2.6888031080255981e-01  2.6822520160327029e-01  2.6852268894441561e-01  2.6888419685393772e-01  2.6220803935473053e-01  2.4734833035748652e-01  6.4780408064873241e-01  6.4759953468740039e-01  2.4807519840278525e-01  3.4908240966434617e-01  4.2992955123047116e-01  4.9186671923014741e-01  5.4226758815515130e-01  5.8162364250240439e-01  6.1271820929669096e-01  6.3518409736292547e-01  6.3649594544329358e-01  6.3604260103901977e-01  6.3734925024407652e-01  6.3734447079969736e-01  6.3739027429429329e-01  6.3615876154540096e-01  6.1318439049449480e-01  5.8278745979501811e-01  5.4252783798337167e-01  4.9205261760238700e-01  4.3149519571260925e-01  3.5127711836634412e-01  3.4648083010533931e-01  3.4652359925334270e-01  3.4411373714127702e-01  3.4182205833303397e-01  3.4184669551623931e-01  3.9989489552738766e-01  4.6181009181252997e-01  5.2037941891354145e-01  5.6440995637597702e-01  5.9869081860647366e-01  6.2141931113676852e-01  6.1697524352120037e-01  6.2027196451173094e-01  6.2140483854173723e-01  6.2200586815940684e-01  6.2360904738105438e-01  5.9972555342216360e-01  5.6239394618244554e-01  5.1762747182055424e-01  4.6194403745062440e-01  4.0436529690987538e-01  4.2148104706163525e-01  4.1035582636344442e-01  4.0772720828957737e-01  4.0520432199280226e-01  5.0290981574689086e-01  5.4459791229428345e-01  5.8426083195116507e-01  5.9934243532353559e-01  5.9815654003133945e-01  5.9918018507204973e-01  5.7496691925694998e-01  5.3954656976742699e-01  4.8923265101190910e-01  4.6213742093674343e-01  4.6569229556521829e-01  5.1700591526381334e-01  5.6719486252777906e-01  5.6491973447167121e-01  5.1441982626647453e-01  4.6265906351534919e-01  5.4205800286066308e-01  4.8744991266660504e-05  -3.8253471478353463e-04  4.8290589463603607e-05  4.5245598156732937e-05  4.0839148080725016e-05  3.3419683600483891e-05  2.3249262823639900e-05  9.0924172264056619e-06  -7.1032115988597130e-06  -1.8328818950711663e-05  -7.9051522308863368e-05  -3.5163765813402321e-04  -3.8469531139059902e-04  -4.1040284511045127e-04  -3.9395118046783276e-04  -4.1466718977121580e-04  -4.7397946362275127e-04  -4.2529832962167160e-04  -4.0765741109209338e-04  -4.0632327490110247e-04  -4.0308055028614011e-04  4.8762258632132995e-05  -8.4700183413676444e-05  -2.1965156211481729e-05  -1.1635641462005974e-05  1.1202577645233997e-05  2.6972790832789359e-05  3.5119052606024422e-05  4.0466224493708435e-05  4.4369711263092079e-05  4.8043514378461117e-05  4.8960918297343432e-05  4.9328582440008820e-05  4.8938891589020493e-05  4.9481256210038390e-05  4.9514645710793856e-05  4.9549840208767276e-05  4.9279673315684471e-05  4.9996584949554296e-05  4.9340111791446351e-05  4.7360687215756402e-05  4.2581079341453435e-05  3.7321633574423615e-05  3.2100184603676557e-05  2.0620413924299346e-05  1.1429789619742962e-05  -2.2618271856708419e-05  -6.4804048341073140e-05  -3.5618711489236827e-05  1.4108302981330896e-05  1.9319271388808130e-05  3.4313429436054020e-05  3.5822106934222135e-05  2.0133143504837159e-05  1.2368076002994258e-05  -4.0092295066400450e-06  -6.8247378570993007e-05  -1.5267982370551691e-05  1.3871870173063137e-05  1.9861107994560297e-05  2.6326981033462506e-05  3.7953908858704212e-05  4.4637418273752595e-05  4.6731443748194931e-05  4.8446745153899586e-05  4.7800392384152544e-05  4.8694041626003939e-05  4.7624234904224724e-05  4.7417288271031669e-05  4.7589012728584687e-05  4.8351868232297816e-05  4.7070682475735425e-05  4.8057027402459632e-05  2.1513046969810256e-05  -1.1879169841285888e-05  4.8325424270165931e-05  4.6814551660631905e-05  4.2466077676041492e-05  3.4813692706610036e-05  2.4072260458513219e-05  1.1077951766299788e-05  -4.5231910502891615e-06  -5.2881249637529877e-05  -5.7920891987107943e-05  -5.8140619387461001e-05  -8.3651847826254314e-05  -6.9214003371124714e-05  -6.3174836163151213e-05  -6.4313769916972454e-05  -7.4766560698312541e-06  4.9962961402952298e-06  2.6197368554846771e-05  3.4641443198245277e-05  3.9431728846204583e-05  4.6192718649628224e-05  4.4994953741724224e-05  4.5761853855111654e-05  4.7219101230622785e-05  4.7646158299031812e-05  4.5442719493862285e-05  4.1952068306286260e-05  3.6751838995584915e-05  3.1100760775787342e-05  1.9261705835588742e-05  1.5055194143010755e-06  -6.6708155164401595e-06  -5.6744627418575801e-06  -4.6291075184396624e-07  -3.9856308529264441e-06  -1.0942695038888510e-05  -5.9582187745019582e-06  5.9447479311547558e-06  2.2919646123919357e-05  2.8360137028764193e-05  3.8962305452626399e-05  4.4477320208188030e-05  4.1841671544914486e-05  4.2639460286409467e-05  4.1112699889914262e-05  4.2023774956242909e-05  3.5552730535571057e-05  2.2350500994042961e-05  1.2157864392916134e-05  -8.4154003447854379e-06  -8.0717627971882406e-08  6.1644107310336067e-06  1.2981800118037993e-05  2.6209604145938984e-05  3.6937328337800893e-05  3.7090557633351928e-05  3.9821500845856572e-05  2.9393112159371662e-05  2.5871630616022963e-05  1.9755047010862864e-05  3.0187948909334766e-05  3.8103624902222813e-05  2.2729275056488655e-05  9.0832767181985311e-02  9.6295598814489566e-03  -6.0426089866849449e-02  -1.1676935364236850e-01  -1.5874086241775540e-01  -1.8682078186652212e-01  -1.9637572040262449e-01  -1.8073618129619473e-01  -1.3315658646919917e-01  9.1324822654218527e-02  9.2066875925087329e-03  -6.0387953652330975e-02  -1.1650263666760466e-01  -1.5920640740812131e-01  -1.8768712832459478e-01  -1.9608809423223353e-01  -1.7996952157106871e-01  -1.3547349270947107e-01  6.2832362000300193e-02  -2.1512612782379426e-02  -8.8996423245153874e-02  -1.3894493506891034e-01  -1.7565539951782005e-01  -1.9499704975487650e-01  -1.9215747116077991e-01  -1.5734383266930982e-01  -1.1223078176613575e-01  -1.1381941379562420e-01  -1.1284240905078639e-01  -1.0869446394653809e-01  -1.0872599413443755e-01  -1.1400719600113927e-01  -1.1748499808601245e-01  -1.1283451061176404e-01  5.1714600070397750e-02  -2.4887556212167608e-02  -8.9248639979190109e-02  -1.3997635126495328e-01  -1.7502838452668162e-01  -1.9398098309805131e-01  -1.9132218680808563e-01  -1.5918685607985011e-01  1.0988140958616863e-01  1.0362672935283879e-01  1.0414791004713062e-01  1.0423771344318761e-01  1.0320502932860984e-01  1.0200675512530481e-01  1.0115523037967694e-01  1.0822897283291828e-01  -9.9939600433650369e-02  -1.0162665542065238e-01  1.2349400951204083e-01  2.5033402493835327e-02  -5.5998978829925924e-02  -1.1582806914740998e-01  -1.6015445914927087e-01  -1.8727953047597801e-01  -1.9689148056287417e-01  -1.7751867584668049e-01  -1.7776097570385702e-01  -1.7118464690563329e-01  -1.7311869654105380e-01  -1.7676686091316665e-01  -1.7389266684786517e-01  -1.7351696302675390e-01  2.1394671166746669e-02  -5.7957685095718886e-02  -1.1556998185211048e-01  -1.5949124720702643e-01  -1.8777190251532661e-01  -1.9731960911921304e-01  3.1757280980637556e-02  3.1185178785768007e-02  2.9553361149043084e-02  2.7333198712663924e-02  2.5667780038416781e-02  -2.6029821495038085e-02  -8.7126227478568213e-02  -1.4198177199316678e-01  -1.7730928969347209e-01  -1.9438556853292113e-01  -1.9265156172560546e-01  -1.9342718830565886e-01  -1.9471028742121724e-01  -1.9491982169626637e-01  -1.9484758449850234e-01  -1.9765325274217302e-01  -3.0332887638317121e-02  -8.6380709469016062e-02  -1.3802073668982218e-01  -1.7445651376216351e-01  -1.9471290708676525e-01  -3.1616044736233008e-02  -3.3838597929944078e-02  -3.6169603317239715e-02  -4.7157755911604003e-02  -1.2560839674849303e-01  -1.6250772109940212e-01  -1.8929818276868718e-01  -1.9435174475350658e-01  -1.9500741954185905e-01  -1.1253588508772824e-01  -1.5651163579780270e-01  -8.7713417527179940e-02  -9.0139224304332993e-02  -1.3899426775400625e-01  -1.7909354039935502e-01  -1.8198243723142477e-01  -1.9575109847181649e-01  -1.7680848804492671e-01  -8.6998335798575868e-02  -1.3626571031251905e-01  -1.5959995963212337e-01  5.5415733593520755e-01  4.6688721872093314e-01  3.8734214448966453e-01  3.1576975283154757e-01  2.5101745824936467e-01  1.9204238318677513e-01  1.3913309478058461e-01  9.0523665208398343e-02  4.4419559983199026e-02  5.2026345487250958e-01  4.2916326563142815e-01  3.4955795367580872e-01  2.8025135898333997e-01  2.1822824186211964e-01  1.6257227948290284e-01  1.1101489080805094e-01  6.4893695692162565e-02  -3.5904390777468528e-02  -1.2689611605404912e-02  3.3627083866457396e-03  1.4719318587140307e-02  2.3760820471113570e-02  3.0567860298198926e-02  3.5252056994964517e-02  3.4362775236735678e-02  1.2814190285874696e-01  5.8329868559212163e-02  -7.2393717340503358e-03  -5.9318639195306312e-02  -9.5084640312839752e-02  -1.1457684939749800e-01  -1.1325200037008606e-01  -9.4995227552126582e-02  5.6108667375586285e-01  5.4016997774557063e-01  5.1542660437681209e-01  4.8075500716763414e-01  4.3575679329555400e-01  3.7926962764737421e-01  3.1056124420892606e-01  2.4141009950626938e-01  2.8832703335310239e-02  -5.4902765234109120e-02  1.8510346089823382e-01  4.6889417210933843e-01  3.7961838753398003e-01  3.0586426887119184e-01  2.4076536076432323e-01  1.8256412899833666e-01  1.3065818536240006e-01  7.8346596242957381e-02  -4.6760382765820327e-02  -5.0592447214498071e-03  2.1882162172458024e-02  4.1070334685108630e-02  5.6838090331899856e-02  6.8499946910498433e-02  1.8436714515433755e-01  9.6795819637036318e-02  3.7677453957387079e-02  -7.1880447119989166e-03  -3.7530698809854275e-02  -5.4252331117555549e-02  4.5408483561302015e-01  4.2446552908307839e-01  3.8416577089908194e-01  3.3214387729432859e-01  2.6997076527761976e-01  3.9982092475968484e-01  3.2469784969780946e-01  2.5579742198531352e-01  1.9751791183443076e-01  1.4528253507371156e-01  1.0566799145070106e-01  -1.6669373848705996e-02  2.0536222880508426e-02  5.2856074667118259e-02  7.8131548445498938e-02  1.0295766372528221e-01  1.8240101717885451e-01  1.2849246020058228e-01  7.4661912128697550e-02  3.3669963588338868e-02  1.0872127828201303e-02  3.7259643131015241e-01  3.3796426947469804e-01  2.9318242356590501e-01  2.2514421834060408e-01  2.6007733435852104e-01  2.0627142385140104e-01  1.5339741233561263e-01  6.0411466979178451e-02  9.5182439855987996e-02  1.5373928528403782e-01  1.0403522947529774e-01  2.9539270510079091e-01  2.5585782196964291e-01  2.1593407792489910e-01  1.5239449899872981e-01  6.5382271942450082e-02  1.1641044876971944e-01  1.1696145127408117e-01  2.2009168800550666e-01  1.7571460932328190e-01  1.6497971409998999e-01  5.5389673860815236e-01  4.6700186601091226e-01  3.8707810189581493e-01  3.1563831853373708e-01  2.5096475682510289e-01  1.9219528597853200e-01  1.3902809717158091e-01  9.0285937481989778e-02  4.4379339054546545e-02  5.2417584659914107e-01  4.3224859525653742e-01  3.5278680238455690e-01  2.8349875644753220e-01  2.2074186235297236e-01  1.6456201229626988e-01  1.1256022632290621e-01  6.5588656806029433e-02  3.5717838319176132e-02  3.8798122150109082e-02  3.8633667299432010e-02  3.8533350965764435e-02  3.8725670356399913e-02  3.9330662245631053e-02  3.9500736260563420e-02  3.6017161424406141e-02  5.1317278891650453e-01  4.2879246440924057e-01  3.5182145669545867e-01  2.8303743519497027e-01  2.2124662131711603e-01  1.6460151616852098e-01  1.1245347000563570e-01  6.5468834273537474e-02  5.7275136801757065e-01  5.6695901124053216e-01  5.6738732629430944e-01  5.6727622118469212e-01  5.6667587946532816e-01  5.6513216106279074e-01  5.6449669209643238e-01  5.7190465886314623e-01  2.9051613892160062e-02  2.8925193530310180e-02  5.8661621183069057e-01  4.8404177011788391e-01  3.9278023162167242e-01  3.1771092042820970e-01  2.5069146164364697e-01  1.9113569751463227e-01  1.3712051081366242e-01  8.3126293841259385e-02  8.2432599235727558e-02  7.8322588282791719e-02  7.8141130229299166e-02  7.8546316692481813e-02  8.0304218315020326e-02  8.0685209890769743e-02  4.7934378675558448e-01  3.9041741626543358e-01  3.1802031490569999e-01  2.5235418040089763e-01  1.9228486685328230e-01  1.3729473988243265e-01  4.9107848064798304e-01  4.9068572885214418e-01  4.8903940574717897e-01  4.8578297750197591e-01  4.8501254134350641e-01  4.2722747961337554e-01  3.5507382645664043e-01  2.8043159734523010e-01  2.1820259409689483e-01  1.6234382740162509e-01  1.1789528755987896e-01  1.1540200361197409e-01  1.1882158477734779e-01  1.1983774940530280e-01  1.2159140909657289e-01  1.2893331160177601e-01  4.2171649048713045e-01  3.5556803780589713e-01  2.8627459928737559e-01  2.2407657526978200e-01  1.6356835594432800e-01  4.2106164908422045e-01  4.1873425060191438e-01  4.1570094807114955e-01  4.0334416452260263e-01  3.0336185522591808e-01  2.4675668000049136e-01  1.8741837188654728e-01  1.6378611060621431e-01  1.6544785891718131e-01  3.2223728904982540e-01  2.5612401184190209e-01  3.5423994777935353e-01  3.5116070927157761e-01  2.8549876288122089e-01  2.1500886474125633e-01  2.0432746045716627e-01  1.6259164637246407e-01  2.1920046846812136e-01  3.5487817307091724e-01  2.8948196987088404e-01  2.5156804924393456e-01  1.4774895404029684e-01  6.5423814265839417e-02  -4.0790210282630260e-03  -5.6732272888946084e-02  -9.5191933892972744e-02  -1.1527714457484566e-01  -1.1648957089825528e-01  -9.6249997071227153e-02  3.4279367374599183e-02  3.4465759672156190e-02  2.9918451315582670e-02  2.3520785605253759e-02  1.5114629594903742e-02  2.9271994184423369e-03  -1.3757240862034894e-02  -3.6580465619854181e-02  5.0981293893517499e-01  4.2575447241266812e-01  3.4894504199714305e-01  2.8021457136266448e-01  2.1872048477126360e-01  1.6256454663140338e-01  1.1086100906798563e-01  6.4381943156470958e-02  2.5928382203623329e-01  3.1753317606142056e-01  3.8190935982877605e-01  4.3656063954808361e-01  4.7996534284217035e-01  5.1367415125603066e-01  5.3883689847311445e-01  5.6242957887309419e-01  -5.8513553365998790e-02  2.8707824649497900e-02  5.8443993307090936e-01  1.9458944484302396e-01  1.0524694244744062e-01  4.2513237716451747e-02  -7.1725386174338540e-03  -4.1078320197098006e-02  -5.6918975133048444e-02  -4.6940425799512464e-02  7.7484835217992126e-02  6.6503689358568596e-02  5.6187253715321045e-02  4.2019733424371417e-02  2.3726264678849928e-02  -3.6032861695085281e-03  4.6573909048966233e-01  3.7862544631763018e-01  3.0710283925404186e-01  2.4280696187587406e-01  1.8338501643908273e-01  1.3016971393612456e-01  2.7776161939912025e-01  3.3576118831642426e-01  3.8286822441952056e-01  4.1917507661243025e-01  4.4872423588782645e-01  1.9146834176045968e-01  1.4370611110633721e-01  7.4058329676204029e-02  3.0167777399212042e-02  6.9532994071352841e-04  -1.5703688686008049e-02  1.0285957090041194e-01  9.5000161125372587e-02  7.8989701744117208e-02  5.6948958632771676e-02  2.6053577515446225e-02  3.9635313915455950e-01  3.3015081283142761e-01  2.6269647496333087e-01  2.0286029151094001e-01  1.4435217078263377e-01  2.4114202090585021e-01  2.9204579595164015e-01  3.3192014934071101e-01  3.5539263253765424e-01  1.4007534523797963e-01  9.8977073941319424e-02  5.7361606635602934e-02  1.2495713342225638e-01  1.0095779848290824e-01  2.7800230727042652e-01  2.1560968673083483e-01  2.0731065073469954e-01  2.5091560873420748e-01  1.7155253399576054e-01  1.1770485747733442e-01  1.6963643926851424e-01  7.1227545834058645e-02  1.5929799078962370e-01  2.8668901115177753e-01  2.1854008101800940e-01  1.6699922547080098e-01  1.6152753964525465e-01  1.2740058591201878e-01  1.6450628768054965e-01  1.7019322464704653e-01  1.6418137568954685e-01  1.1835102467820569e-01  1.0060636544836973e-01  2.1315304825118081e-01  2.3149292663513749e-01  2.4175872371945947e-01  1.9412010690956516e-01  2.1609289342603813e-01  1.8490458148304517e-01  2.1639212723789095e-01  2.4865875353123049e-01  1.2946233829929882e-01  2.2376901880786682e-01  1.7221230100364018e-01  1.6538572728362472e-01  1.5276356080230444e-01  1.9212958069706837e-01  2.2306140220281603e-01  2.6037430414924639e-01  1.1358305256048609e-01  1.0209576269935705e-01  1.2657184867675531e-01  1.2366981025850267e-01  8.5115555911710175e-02  6.7944559587068076e-02  9.7694778721519229e-02  7.4048532851312118e-02  1.9941623541860388e-02  7.0943110698720613e-02  4.8021549248794815e-02  5.2379729935005649e-02  8.9934299144221574e-02  9.1724210333514827e-02  1.0793470658929402e-01  5.8913188992782070e-02  4.7990509054102466e-02  -3.3971040356285058e-02  -8.7764713579703862e-02  3.4981115007373519e-02  1.2012016530554580e-01  6.0881319006545274e-02  1.0913169565554964e-01  8.0589849287384913e-02  1.4064794881784390e-01  1.9206088954597658e-01  1.1845556067190906e-01  1.5471584724157114e-01  1.5683246349001742e-01  9.7854053263454810e-02  1.2886664956716737e-01  9.7978919803165004e-02  2.5192211080555447e-02  1.1744384074960332e-01  3.8510136439053391e-02  1.5353789844229387e-01  5.5172096376282384e-02  1.3661674315899547e-01  1.6676835518255589e-01  7.5180604138590401e-02  1.6536639679754664e-01  7.7050946835449247e-02  5.0204807437927312e-01  4.4411025055949099e-01  4.7984348068613952e-01  5.1365725394310024e-01  1.5030734653101466e-01  6.1109531823064930e-02  7.7166345864368838e-02  1.0760442851739001e-01  2.4996722003734068e-01  1.6799557602464513e-01  2.0495312559951884e-01  2.4883742662789529e-01  1.8206620289656489e-01  1.1424139451739573e-02  -1.2687001424971648e-02  1.1297005439660725e-02  3.6065369413845346e-03  2.0494042318364145e-01  1.4117207987094552e-01  1.7063947652641850e-01  9.7604913253631270e-02  2.0419520977423569e-01  -2.6465557148053837e-02  -8.7504816365528995e-02  1.7712313981179997e-01  2.2163393831417103e-01  1.6449001302928407e-01  1.8963183362597971e-02  -8.4262282946881706e-03  1.2812500367884705e-02  1.3556071247136101e-01  1.0952174751236007e-01  3.5261956847810735e-02  5.1303559711254935e-02  9.9212332579269886e-03  -4.6567457070490958e-03  -9.4533322834407015e-03  2.1784995304513423e-02  2.2760932269391132e-02  5.8153551997206405e-02  4.0941363333560493e-02  -1.0671885617588903e-02  -4.6236914377501021e-02  -2.3735583932917657e-02  2.8620353673922233e-01  3.2503585186154205e-01  2.4166860166693616e-01  2.5986812859941810e-01  8.0295436928561198e-02  3.3204687094407326e-02  4.6400672944175707e-02  2.1433760364348800e-01  2.5832983305080709e-01  -6.0470716024128596e-02  -1.2927924125341986e-01  -1.1888165455845000e-01  -1.0318400413790552e-01  2.4771427255261141e-01  1.1833765776886025e-01  1.9245538046097621e-01  1.6891084631437703e-01  1.6985025080994792e-01  2.3255206029252876e-01  2.3877964