<?xml version="1.0"?>
<VTKFile type="UnstructuredGrid"  version="0.1"  >
<UnstructuredGrid>
<Piece  NumberOfPoints="5110" NumberOfCells="22344">
<Points>
<DataArray  type="Float64"  NumberOfComponents="3"  format="ascii">1 -1 1  1 1 1  1 -0.866666666667 1  1 -0.733333333333 1  1 -0.6 1  1 -0.466666666667 1  1 -0.333333333333 1  1 -0.2 1  1 -0.0666666666667 1  1 0.0666666666667 1  1 0.2 1  1 0.333333333333 1  1 0.466666666667 1  1 0.6 1  1 0.733333333333 1  1 0.866666666667 1  -1 1 1  0.866666666667 1 1  0.733333333333 1 1  0.6 1 1  0.466666666667 1 1  0.333333333333 1 1  0.2 1 1  0.0666666666667 1 1  -0.0666666666667 1 1  -0.2 1 1  -0.333333333333 1 1  -0.466666666667 1 1  -0.6 1 1  -0.733333333333 1 1  -0.866666666667 1 1  -1 -1 1  -1 0.866666666667 1  -1 0.733333333333 1  -1 0.6 1  -1 0.466666666667 1  -1 0.333333333333 1  -1 0.2 1  -1 0.0666666666667 1  -1 -0.0666666666667 1  -1 -0.2 1  -1 -0.333333333333 1  -1 -0.466666666667 1  -1 -0.6 1  -1 -0.733333333333 1  -1 -0.866666666667 1  -0.866666666667 -1 1  -0.733333333333 -1 1  -0.6 -1 1  -0.466666666667 -1 1  -0.333333333333 -1 1  -0.2 -1 1  -0.0666666666667 -1 1  0.0666666666667 -1 1  0.2 -1 1  0.333333333333 -1 1  0.466666666667 -1 1  0.6 -1 1  0.733333333333 -1 1  0.866666666667 -1 1  0.89215014178 -0.804398807317 1  0.882789795837 -0.671903723661 1  0.883589428587 -0.535921064054 1  0.883881392173 -0.401609024855 1  0.884061117024 -0.267548803057 1  0.884252799258 -0.133744675121 1  0.884394006921 -0.000170432343645 1  0.884472372329 0.133267652233 1  0.884508566425 0.266641758794 1  0.884654222827 0.399939063328 1  0.8845375688879999 0.533577024095 1  0.883809817928 0.669760407819 1  0.893265175077 0.803212172095 1  0.806029760699 0.890612069491 1  0.6731413636070001 0.880369900745 1  0.536347367693 0.880617232824 1  0.401360781005 0.88179336079 1  0.267138898746 0.883288663204 1  0.133456564713 0.884060549251 1  1.57839161453e-05 0.884373124629 1  -0.133340492963 0.8844852162520001 1  -0.266673523645 0.884521020977 1  -0.399952138817 0.88466150048 1  -0.533582044678 0.884540978012 1  -0.669762102336 0.883811089056 1  -0.803212612307 0.893265508934 1  -0.890612301087 0.806029937838 1  -0.880370327514 0.673141749992 1  -0.880617749757 0.5363478902960001 1  -0.881793725367 0.401361160958 1  -0.88328880601 0.267139045612 1  -0.884060593444 0.133456608384 1  -0.884373136827 1.57951063131e-05 1  -0.884485219439 -0.13334049037 1  -0.884521021791 -0.266673523087 1  -0.884661500686 -0.399952138703 1  -0.884540978063 -0.5335820446540001 1  -0.883811089068 -0.669762102331 1  -0.893265508936 -0.8032126123060001 1  -0.806029937839 -0.890612301087 1  -0.673141749994 -0.880370327514 1  -0.536347890297 -0.880617749756 1  -0.401361160958 -0.881793725366 1  -0.267139045612 -0.88328880601 1  -0.133456608385 -0.884060593444 1  -1.57951063222e-05 -0.884373136827 1  0.13334049037 -0.884485219439 1  0.266551196762 -0.8846115721509999 1  0.400066369545 -0.883937302485 1  0.53453831805 -0.882417187137 1  0.671593712867 -0.881684738726 1  0.805021645539 -0.891917297828 1  0.912767690797 -0.912596554362 1  0.913192320489 0.912098181651 1  -0.912098316012 0.913192422688 1  -0.913192422688 -0.912098316012 1  0.754889211439 -0.7542441080359999 1  0.767300190797 -0.606306061305 1  0.767825093583 -0.471837843161 1  0.767822888837 -0.336694741612 1  0.76804585186 -0.2018024629 1  0.768417310817 -0.0675148494847 1  0.768724524163 0.0663060657445 1  0.768909518858 0.199857878505 1  0.769376540562 0.333580355307 1  0.770101479937 0.467894245118 1  0.769889426165 0.602314084708 1  0.757089744306 0.751548951994 1  0.607678288436 0.75861991867 1  0.470354921803 0.759241932134 1  0.334355932615 0.764422564726 1  0.200448315867 0.766962325799 1  0.0668353247011 0.768188641428 1  -0.0666361927972 0.768744803123 1  -0.20001264259 0.768967736663 1  -0.333649185137 0.769418779565 1  -0.467922541467 0.770123585273 1  -0.602324515678 0.769898571681 1  -0.751551956582 0.757092484376 1  -0.758624054677 0.607682928256 1  -0.759246437953 0.470361081614 1  -0.7644252854669999 0.334361415459 1  -0.766963082144 0.200452243368 1  -0.768188335141 0.0668375362443 1  -0.768744359062 -0.06663514979060001 1  -0.768967451544 -0.200012209042 1  -0.769418641878 -0.333649021125 1  -0.770123530191 -0.467922484885 1  -0.769898553748 -0.60232449868 1  -0.757092480566 -0.751551953072 1  -0.6076829202589999 -0.758624048187 1  -0.47036106873 -0.7592464287589999 1  -0.334361402991 -0.764425279163 1  -0.200452233948 -0.766963080223 1  -0.06683753077890001 -0.768188335879 1  0.0666351524144 -0.768744360182 1  0.199641692251 -0.769229359562 1  0.332236514893 -0.768376135436 1  0.467113943182 -0.763447407756 1  0.60454029136 -0.762198730983 1  0.663326696702 -0.659449971761 1  0.6539462094389999 -0.5428591192460001 1  0.651622174253 -0.407727087173 1  0.650985199737 -0.27146065301 1  0.651738727641 -0.135765645526 1  0.652517429229 -0.00109823827176 1  0.6531200459299999 0.132785575305 1  0.653836219482 0.267026582405 1  0.655345025475 0.402469518033 1  0.657843853152 0.5375175113040001 1  0.667017930985 0.654776025484 1  0.541672537438 0.623592194801 1  0.398782317858 0.644204554177 1  0.266621657953 0.649073535535 1  0.13340775381 0.651477852465 1  -3.62595876945e-05 0.652701524801 1  -0.13332344073 0.653348451021 1  -0.267269719795 0.653996068778 1  -0.402570008486 0.65543003779 1  -0.537554170056 0.6578794428269999 1  -0.654789507303 0.66703162857 1  -0.62361526022 0.541701537553 1  -0.644218609408 0.398808567744 1  -0.649079039569 0.266642909001 1  -0.651477030408 0.133421520662 1  -0.652698772134 -2.87482340999e-05 1  -0.653346221834 -0.133319891159 1  -0.653994837236 -0.26726824867 1  -0.655429514127 -0.402569480218 1  -0.657879273359 -0.537554013675 1  -0.667031581646 -0.654789465054 1  -0.541701411399 -0.623615161065 1  -0.398808463205 -0.644218545859 1  -0.266642830946 -0.649079009598 1  -0.133421475694 -0.651477027271 1  -4.79102485682e-05 -0.652522193466 1  0.132575220129 -0.653080679131 1  0.263994242789 -0.652945543353 1  0.394499862342 -0.649705159198 1  0.537130965646 -0.62909758029 1  0.536254291828 -0.48070200452 1  0.53220413569 -0.341858117559 1  0.534538118305 -0.203770707705 1  0.5359111476440001 -0.0684903541579 1  0.537125404071 0.06567743046049999 1  0.538183262447 0.199948545492 1  0.537394066987 0.336890957297 1  0.54153796127 0.474773629392 1  0.444969477942 0.537284010754 1  0.331242773743 0.532444430333 1  0.19963023417 0.533929722916 1  0.0664799722144 0.535454579078 1  -0.0667841644147 0.537283558907 1  -0.200518191558 0.538472583972 1  -0.33714448627 0.537591004613 1  -0.474869694303 0.541632540438 1  -0.537340196754 0.445043171285 1  -0.532495434732 0.331327109465 1  -0.53396557529 0.199707720312 1  -0.535471137655 0.066530583384 1  -0.537285573845 -0.0667615167118 1  -0.538470807473 -0.200509502807 1  -0.537589575701 -0.337141497621 1  -0.541631925467 -0.474868812138 1  -0.445042718662 -0.537339695091 1  -0.331326522169 -0.532494920519 1  -0.199707111773 -0.533965174316 1  -0.06719066581410001 -0.535445402108 1  0.0640661644352 -0.536646469824 1  0.194830190343 -0.536772298422 1  0.325500787475 -0.536729259005 1  0.439262337939 -0.542657749453 1  0.402711228674 -0.415629578699 1  0.41678805167 -0.269447108554 1  0.418173159082 -0.135295844684 1  0.420256532188 -0.000854948876005 1  0.423281655082 0.133324836857 1  0.424313681395 0.266586733827 1  0.409921929544 0.411667632673 1  0.266538370182 0.415810513058 1  0.13257366208 0.415346413523 1  -0.00158476985026 0.420235675296 1  -0.134612233899 0.423608495308 1  -0.267181188964 0.424571775992 1  -0.411886443954 0.410092596748 1  -0.416038286277 0.266605244341 1  -0.41558997741 0.132407865716 1  -0.420449192683 -0.00184276011071 1  -0.423756541559 -0.134777555542 1  -0.424637282622 -0.267238742138 1  -0.410106956889 -0.411898139423 1  -0.266658908053 -0.416060663609 1  -0.133046908529 -0.416379447619 1  -0.00290856169041 -0.423579140023 1  0.12442010334 -0.42177480921 1  0.256378538095 -0.419568537733 1  0.311119023164 -0.318910257218 1  0.300271685499 -0.201976708119 1  0.301218952897 -0.06586284156900001 1  0.307215521186 0.06960214199960001 1  0.313160907671 0.201895093645 1  0.323130230789 0.31599944714 1  0.200469193743 0.284911681596 1  0.0607047043773 0.304058252369 1  -0.0700065631765 0.309019812119 1  -0.201816422994 0.313374698031 1  -0.316315473521 0.323196555001 1  -0.283841334731 0.199722446139 1  -0.302845836819 0.0587555698874 1  -0.308945981582 -0.072262335421 1  -0.31383726529 -0.20301604676 1  -0.323369868111 -0.316592508142 1  -0.199904817951 -0.286325358833 1  -0.058604481212 -0.309049546508 1  0.0547557264725 -0.328182773897 1  0.179165396278 -0.288805321379 1  0.175455882877 -0.131525712756 1  0.186076445274 0.0110335812159 1  0.198883830934 0.143955235185 1  0.106947078667 0.204474395517 1  -0.00484540365608 0.195810139452 1  -0.137532817395 0.197663227394 1  -0.196987941063 0.101919431962 1  -0.192815044676 -0.0130573947544 1  -0.199471533661 -0.144486116306 1  -0.101163717597 -0.205420374119 1  0.0320464777438 -0.199164947884 1  0.0541845360456 -0.0415424277292 1  0.0788390047106 0.09636019488640001 1  -0.06838059623620001 0.0640447575759 1  -0.0792666463967 -0.0899377505362 1  1 1 -1  1 -1 -1  1 0.866666666667 -1  1 0.733333333333 -1  1 0.6 -1  1 0.466666666667 -1  1 0.333333333333 -1  1 0.2 -1  1 0.0666666666667 -1  1 -0.0666666666667 -1  1 -0.2 -1  1 -0.333333333333 -1  1 -0.466666666667 -1  1 -0.6 -1  1 -0.733333333333 -1  1 -0.866666666667 -1  -1 -1 -1  0.866666666667 -1 -1  0.733333333333 -1 -1  0.6 -1 -1  0.466666666667 -1 -1  0.333333333333 -1 -1  0.2 -1 -1  0.0666666666667 -1 -1  -0.0666666666667 -1 -1  -0.2 -1 -1  -0.333333333333 -1 -1  -0.466666666667 -1 -1  -0.6 -1 -1  -0.733333333333 -1 -1  -0.866666666667 -1 -1  -1 1 -1  -1 -0.866666666667 -1  -1 -0.733333333333 -1  -1 -0.6 -1  -1 -0.466666666667 -1  -1 -0.333333333333 -1  -1 -0.2 -1  -1 -0.0666666666667 -1  -1 0.0666666666667 -1  -1 0.2 -1  -1 0.333333
[...]
<PointData  Scalars="f_50"> 
<DataArray  type="Float64"  Name="f_50"  format="ascii">1.0280750957000186e-04  1.0280733406230530e-04  1.0280873873649509e-04  1.0281101410751813e-04  1.0281325799956733e-04  1.0281520479646968e-04  1.0281670881438326e-04  1.0281772092953112e-04  1.0281821857002047e-04  1.0281819635066583e-04  1.0281765872632747e-04  1.0281661343151516e-04  1.0281507479931920e-04  1.0281309357873109e-04  1.0281076932191494e-04  1.0280859678997473e-04  1.0280719571070556e-04  1.0280852875483752e-04  1.0281076708317144e-04  1.0281301630339623e-04  1.0281493742017230e-04  1.0281642872742501e-04  1.0281743580090532e-04  1.0281793883293490e-04  1.0281791987672369e-04  1.0281738050855437e-04  1.0281634588413587e-04  1.0281484164943696e-04  1.0281291491336460e-04  1.0281066647369027e-04  1.0280850862863949e-04  1.0280712425655576e-04  1.0280838643150559e-04  1.0281062615355509e-04  1.0281291536609475e-04  1.0281486829164393e-04  1.0281637985298659e-04  1.0281739647902098e-04  1.0281790079900116e-04  1.0281788838088913e-04  1.0281736485536520e-04  1.0281633717404742e-04  1.0281482218059778e-04  1.0281286989345163e-04  1.0281060164286372e-04  1.0280843612588403e-04  1.0280831871294660e-04  1.0281058078341328e-04  1.0281290549165184e-04  1.0281490106662355e-04  1.0281645356512362e-04  1.0281751077144517e-04  1.0281805698918581e-04  1.0281808563923045e-04  1.0281759861107182e-04  1.0281660635664678e-04  1.0281512569724124e-04  1.0281319991001624e-04  1.0281089564272577e-04  1.0280875283412790e-04  1.0281129716047768e-04  1.0281377911009447e-04  1.0281598113479558e-04  1.0281773001020176e-04  1.0281900764096984e-04  1.0281976951361660e-04  1.0282000666621136e-04  1.0281972420833342e-04  1.0281892905949358e-04  1.0281762311883992e-04  1.0281582872310927e-04  1.0281359985222095e-04  1.0281094909654643e-04  1.0281095600877314e-04  1.0281359765602792e-04  1.0281578054707109e-04  1.0281751458974453e-04  1.0281874870752647e-04  1.0281949841776768e-04  1.0281973553916897e-04  1.0281944740593640e-04  1.0281864433511971e-04  1.0281735886001690e-04  1.0281562254951392e-04  1.0281344834420094e-04  1.0281097300527509e-04  1.0281077202403885e-04  1.0281345876694644e-04  1.0281569123318879e-04  1.0281745277941017e-04  1.0281870469847349e-04  1.0281945411609760e-04  1.0281969281044112e-04  1.0281942296095317e-04  1.0281864372717754e-04  1.0281735928155647e-04  1.0281559611609526e-04  1.0281339076834518e-04  1.0281090069520825e-04  1.0281070487347464e-04  1.0281341713013319e-04  1.0281569084674500e-04  1.0281749739470061e-04  1.0281879043733225e-04  1.0281958442670222e-04  1.0281986915656479e-04  1.0281963658385809e-04  1.0281889233728333e-04  1.0281766142475731e-04  1.0281594707949145e-04  1.0281374368128939e-04  1.0281104637923177e-04  1.0280919666666432e-04  1.0280902180933407e-04  1.0280889597478237e-04  1.0280882445880633e-04  1.0281489469651403e-04  1.0281758527804862e-04  1.0281948655303426e-04  1.0282108520163993e-04  1.0282214392662870e-04  1.0282264360805811e-04  1.0282261224752226e-04  1.0282206472290851e-04  1.0282099400655143e-04  1.0281938788642059e-04  1.0281730076183136e-04  1.0281482972104866e-04  1.0281743207231048e-04  1.0281954215388707e-04  1.0282097200860770e-04  1.0282192304095112e-04  1.0282240293474740e-04  1.0282235595637446e-04  1.0282177475136060e-04  1.0282068628393536e-04  1.0281913075634222e-04  1.0281715156644324e-04  1.0281460139777954e-04  1.0281732319339686e-04  1.0281943819830940e-04  1.0282088384733471e-04  1.0282184160229359e-04  1.0282232883933834e-04  1.0282230511957862e-04  1.0282176985358412e-04  1.0282072174349972e-04  1.0281914714953727e-04  1.0281711795049635e-04  1.0281452948069991e-04  1.0281727792102616e-04  1.0281941842910787e-04  1.0282090773266639e-04  1.0282193895082373e-04  1.0282248281856058e-04  1.0282249504311142e-04  1.0282198966692346e-04  1.0282102024829033e-04  1.0281963233667164e-04  1.0281758150938824e-04  1.0281857866825127e-04  1.0282081804034840e-04  1.0282276584320977e-04  1.0282414843036770e-04  1.0282494601940613e-04  1.0282519002187837e-04  1.0282490006547471e-04  1.0282407563178126e-04  1.0282268346073107e-04  1.0282068489861153e-04  1.0281853937297385e-04  1.0282132212126903e-04  1.0282298640822582e-04  1.0282403010156626e-04  1.0282476507730802e-04  1.0282497334700203e-04  1.0282464259701262e-04  1.0282379222152936e-04  1.0282242371032168e-04  1.0282050765671350e-04  1.0281841215492480e-04  1.0282117564230094e-04  1.0282282620417986e-04  1.0282387628296359e-04  1.0282462265315580e-04  1.0282485552178967e-04  1.0282458369430100e-04  1.0282379282356486e-04  1.0282244180189456e-04  1.0282050233456227e-04  1.0281837516617070e-04  1.0282115355244854e-04  1.0282282504163629e-04  1.0282393214420414e-04  1.0282475258677425e-04  1.0282503640296214e-04  1.0282479540640956e-04  1.0282405943440915e-04  1.0282290907223639e-04  1.0282146333723879e-04  1.0282399134049262e-04  1.0282560428860777e-04  1.0282670132378269e-04  1.0282722875561654e-04  1.0282720408840467e-04  1.0282666496151892e-04  1.0282558836604140e-04  1.0282379462605975e-04  1.0282417457247603e-04  1.0282558713178356e-04  1.0282662185491451e-04  1.0282708565959371e-04  1.0282698217973484e-04  1.0282637462134879e-04  1.0282529046964643e-04  1.0282356106254078e-04  1.0282395838294934e-04  1.0282536466143568e-04  1.0282641605186902e-04  1.0282690239414240e-04  1.0282685970423054e-04  1.0282635612938744e-04  1.0282532535641951e-04  1.0282357959893531e-04  1.0282398391122176e-04  1.0282541502395241e-04  1.0282651677249966e-04  1.0282706422961948e-04  1.0282707300628405e-04  1.0282661953234945e-04  1.0282563028884919e-04  1.0282425338842982e-04  1.0282658899315294e-04  1.0282788645333733e-04  1.0282869971578236e-04  1.0282895682901797e-04  1.0282863522895495e-04  1.0282795912241380e-04  1.0282657221555545e-04  1.0282792036349791e-04  1.0282870222073852e-04  1.0282880643915349e-04  1.0282835064068119e-04  1.0282761172731007e-04  1.0282626390235713e-04  1.0282762701537214e-04  1.0282847573060707e-04  1.0282864643782186e-04  1.0282831550927265e-04  1.0282767233266779e-04  1.0282634695918433e-04  1.0282773601308785e-04  1.0282857622516768e-04  1.0282875608968877e-04  1.0282856118444392e-04  1.0282800411239833e-04  1.0282848676323059e-04  1.0282957225984017e-04  1.0283016100124467e-04  1.0283010838414571e-04  1.0282949389691419e-04  1.0282848181612728e-04  1.0282982494094960e-04  1.0283019041802749e-04  1.0282998747496371e-04  1.0282918366571559e-04  1.0282813039409396e-04  1.0282956400126980e-04  1.0282993215439926e-04  1.0282989468373897e-04  1.0282918325173440e-04  1.0282819820511419e-04  1.0282959920277864e-04  1.0282998758886315e-04  1.0282982013212638e-04  1.0282979658178610e-04  1.0283086699653342e-04  1.0283103251365185e-04  1.0283067174878903e-04  1.0283067579903121e-04  1.0283082418479229e-04  1.0283062088199465e-04  1.0283058998798544e-04  1.0283071311686736e-04  1.0283062418069422e-04  1.0283068356350393e-04  1.0283086361718345e-04  1.0283155088990950e-04  1.0283119367552896e-04  1.0283124992565331e-04  1.0283108632387088e-04  1.0280733300575454e-04  1.0280754101928813e-04  1.0280866039037578e-04  1.0281082250384119e-04  1.0281308005739778e-04  1.0281503240032613e-04  1.0281654021689011e-04  1.0281755666836057e-04  1.0281807271692661e-04  1.0281808988523249e-04  1.0281761023681045e-04  1.0281662791519148e-04  1.0281515395531788e-04  1.0281323503361660e-04  1.0281096891676910e-04  1.0280881967552846e-04  1.0280714722839398e-04  1.0280882907988242e-04  1.0281100205121779e-04  1.0281330106027714e-04  1.0281526123955280e-04  1.0281676942597270e-04  1.0281777839606156e-04  1.0281827027793265e-04  1.0281824162289230e-04  1.0281768379258460e-04  1.0281660593998107e-04  1.0281502966268634e-04  1.0281301457118298e-04  1.0281069735631851e-04  1.0280849155172215e-04  1.0280700367720124e-04  1.0280842428298899e-04  1.0281058680661635e-04  1.0281292089726277e-04  1.0281490923855118e-04  1.0281643440469083e-04  1.0281746151269929e-04  1.0281797982105250e-04  1.0281798014182097e-04  1.0281744908842133e-04  1.0281639284323183e-04  1.0281483763790902e-04  1.0281284309918456e-04  1.0281054296649460e-04  1.0280834626995464e-04  1.0280828119085148e-04  1.0281044762990814e-04  1.0281279917658199e-04  1.0281482055927341e-04  1.0281638542635240e-04  1.0281743829125106e-04  1.0281797270872746e-04  1.0281799267369300e-04  1.0281750131597640e-04  1.0281650450786551e-04  1.0281501963444591e-04  1.0281309094906587e-04  1.0281078857978884e-04  1.0280862577647413e-04  1.0281111978313204e-04  1.0281357871089957e-04  1.0281581070208988e-04  1.0281757408263789e-04  1.0281885855903144e-04  1.0281962134174180e-04  1.0281988649374953e-04  1.0281965878395056e-04  1.0281892526624728e-04  1.0281768281848822e-04  1.0281595117540867e-04  1.0281378241429726e-04  1.0281118142978788e-04  1.0281118611060633e-04  1.0281383292103960e-04  1.0281608211270041e-04  1.0281785320801371e-04  1.0281909344881724e-04  1.0281983191107008e-04  1.0282006222084600e-04  1.0281976791067445e-04  1.0281894586617673e-04  1.0281760196455789e-04  1.0281577525068267e-04  1.0281350426329157e-04  1.0281096647683274e-04  1.0281073129579825e-04  1.0281341681131859e-04  1.0281572381731829e-04  1.0281751608506745e-04  1.0281876798645442e-04  1.0281952895122355e-04  1.0281979015604656e-04  1.0281952506050136e-04  1.0281872732686134e-04  1.0281740185443486e-04  1.0281559453376174e-04  1.0281334360870038e-04  1.0281081924169828e-04  1.0281058385515839e-04  1.0281327105475479e-04  1.0281560556858585e-04  1.0281744741154737e-04  1.0281874324573958e-04  1.0281952091185425e-04  1.0281978945868068e-04  1.0281954829574983e-04  1.0281879869338654e-04  1.0281755847385591e-04  1.0281583715595918e-04  1.0281362958059029e-04  1.0281093977786039e-04  1.0280904185876890e-04  1.0280924234792832e-04  1.0280885737561378e-04  1.0280871307361723e-04  1.0281473734580438e-04  1.0281742143679051e-04  1.0281934917394168e-04  1.0282095827586458e-04  1.0282202752410681e-04  1.0282255320127918e-04  1.0282256172980958e-04  1.0282207091000589e-04  1.0282105595497020e-04  1.0281950462039527e-04  1.0281748722531228e-04  1.0281507299023629e-04  1.0281770004556297e-04  1.0281982833519643e-04  1.0282126787622073e-04  1.0282222014476749e-04  1.0282270891925495e-04  1.0282267851276975e-04  1.0282211667448274e-04  1.0282101084346584e-04  1.0281936938429924e-04  1.0281727372488762e-04  1.0281458848656297e-04  1.0281734135697580e-04  1.0281950970088108e-04  1.0282096598855894e-04  1.0282193697483611e-04  1.0282243895191701e-04  1.0282244186925460e-04  1.0282190001937990e-04  1.0282080866135439e-04  1.0281918506441053e-04  1.0281710022824720e-04  1.0281441901210646e-04  1.0281717207691423e-04  1.0281939384963172e-04  1.0282092877146017e-04  1.0282194167160218e-04  1.0282244541213580e-04  1.0282244477565185e-04  1.0282191512902884e-04  1.0282093141522358e-04  1.0281952161404469e-04  1.0281744860109602e-04  1.0281843056545729e-04  1.0282066955502925e-04  1.0282266935912801e-04  1.0282406511854008e-04  1.0282487442012054e-04  1.0282515564220177e-04  1.0282491596446744e-04  1.0282414810544965e-04  1.0282281636065751e-04  1.0282088783740620e-04  1.0281878843388955e-04  1.0282158022080867e-04  1.0282324540029359e-04  1.0282429202276996e-04  1.0282503735437847e-04  1.0282527340315479e-04  1.0282498513968317e-04  1.0282414273463511e-04  1.0282271692500684e-04  1.0282071531910745e-04  1.0281850079745956e-04  1.0282132987826766e-04  1.0282288149879656e-04  1.0282406595651998e-04  1.0282480390961934e-04  1.0282505532752203e-04  1.0282477752179027e-04  1.0282394024951002e-04  1.0282252398026647e-04  1.0282054537012870e-04  1.0281833198451014e-04  1.0282118851216291e-04  1.0282278842756882e-04  1.0282402622287477e-04  1.0282479081395571e-04  1.0282504496533657e-04  1.0282476940383562e-04  1.0282396106350001e-04  1.0282289115398601e-04  1.0282130555613162e-04  1.0282376944899531e-04  1.0282557269767150e-04  1.0282666497486171e-04  1.0282721930884268e-04  1.0282723197386368e-04  1.0282672765120812e-04  1.0282568855299214e-04  1.0282396127573932e-04  1.0282438558275076e-04  1.0282579730987760e-04  1.0282685383575454e-04  1.0282735442775053e-04  1.0282730689361696e-04  1.0282676101829442e-04  1.0282563283827854e-04  1.0282395532301372e-04  1.0282422833400527e-04  1.0282563149521694e-04  1.0282666872951399e-04  1.0282718186671069e-04  1.0282713865457946e-04  1.0282657142168873e-04  1.0282546064200614e-04  1.0282381711493278e-04  1.0282410642624256e-04  1.0282554658548181e-04  1.0282661156979171e-04  1.0282713631285044e-04  1.0282712020630049e-04  1.0282660639152053e-04  1.0282553983265204e-04  1.0282411922613545e-04  1.0282658371992307e-04  1.0282789631854128e-04  1.0282871835043747e-04  1.0282899885641868e-04  1.0282870674275960e-04  1.0282806255928650e-04  1.0282672968688380e-04  1.0282807852775555e-04  1.0282890620298538e-04  1.0282910041996081e-04  1.0282875291676677e-04  1.0282806678717295e-04  1.0282661530378666e-04  1.0282795099802802e-04  1.0282879660537205e-04  1.0282897304123565e-04  1.0282863682515000e-04  1.0282782220540685e-04  1.0282651788742772e-04  1.0282788284386687e-04  1.0282870163963978e-04  1.0282885696134905e-04  1.0282865186193632e-04  1.0282796096964646e-04  1.0282867770135968e-04  1.0282961378856083e-04  1.0283021210833603e-04  1.0283018092286426e-04  1.0282958303419532e-04  1.0282859159398303e-04  1.0282993431937346e-04  1.0283038317087905e-04  1.0283029054809642e-04  1.0282964227974701e-04  1.0282856232475790e-04  1.0282997235566630e-04  1.0283024985974364e-04  1.0283021270038725e-04  1.0282954433040450e-04  1.0282855624317356e-04  1.0282979301418327e-04  1.0283013324619167e-04  1.0282992691099814e-04  1.0282988317456042e-04  1.0283089406563144e-04  1.0283110662467489e-04  1.0283077794202939e-04  1.0283081834579155e-04  1.0283103312509695e-04  1.0283088136081482e-04  1.0283088003445886e-04  1.0283098214348726e-04  1.0283085793672129e-04  1.0283087053867359e-04  1.0283095932450298e-04  1.0283165431034261e-04  1.0283132438074052e-04  1.0283146609286465e-04  1.0283128141655181e-04  1.0280839493288247e-04  1.0281059085369926e-04  1.0281291060661429e-04  1.0281490287570899e-04  1.0281644122230881e-04  1.0281747451869119e-04  1.0281799815913812e-04  1.0281800500586103e-04  1.0281749235509401e-04  1.0281645884828379e-04  1.0281492012817399e-04  1.0281293538912337e-04  1.0281061608488698e-04  1.0280844023789812e-04  1.0280876426259955e-04  1.0281096164927585e-04  1.0281327911560446e-04  1.0281526903005649e-04  1.0281680791759489e-04  1.0281784628163077e-04  1.0281836820146565e-04  1.0281836372836883e-04  1.0281783379396494e-04  1.0281679301561357e-04  1.0281526456123708e-04  1.0281330202921592e-04  1.0281100365925618e-04  1.0280883029555002e-04  1.0281073263442410e-04  1.0281339942722620e-04  1.0281571044338690e-04  1.0281752060727189e-04  1.0281878770770434e-04  1.0281955601904756e-04  1.0281981764931285e-04  1.0281956437388293e-04  1.0281878986651082e-04  1.0281748797874800e-04  1.0281568116730589e-04  1.0281344544010167e-04  1.0281080137899745e-04  1.0281119578433650e-04  1.0281380857766642e-04  1.0281601859180889e-04  1.0281780245925222e-04  1.0281908280325037e-04  1.0281984122690253e-04  1.0282007604129348e-04  1.0281977892926762e-04  1.0281895839035730e-04  1.0281763714610582e-04  1.0281582296015854e-04  1.0281353080980288e-04  1.0281082567809878e-04  1.0281110504685116e-04  1.0281376533208387e-04  1.0281600500499193e-04  1.0281781509151242e-04  1.0281912564619056e-04  1.0281992126951198e-04  1.0282018164600791e-04  1.0281991007988273e-04  1.0281911816998636e-04  1.0281783898915732e-04  1.0281608200154387e-04  1.0281385138361699e-04  1.0281119404580868e-04  1.0281134739372008e-04  1.0281348535918213e-04  1.0281566120641900e-04  1.0281746508671395e-04  1.0281879146628908e-04  1.0281960114761700e-04  1.0281989005883388e-04  1.0281966003203023e-04  1.0281891341467800e-04  1.0281767737572844e-04  1.0281595307666448e-04  1.0281376522861225e-04  1.0281110967672842e-04  1.0280885525493221e-04  1.0280924566892396e-04  1.0280912594836809e-04  1.0281459093667803e-04  1.0281735201299044e-04  1.0281951751173218e-04  1.0282098695420148e-04  1.0282196962821538e-04  1.0282248358267869e-04  1.0282249230770209e-04  1.0282197770008993e-04  1.0282092068805999e-04  1.0281930516468461e-04  1.0281720370795624e-04  1.0281472785802007e-04  1.0281511540179062e-04  1.0281756287044868e-04  1.0281961766983308e-04  1.0282120006830854e-04  1.0282225269546026e-04  1.0282276536775787e-04  1.0282273459812231e-04  1.0282215748088670e-04  1.0282111630239086e-04  1.0281961547542604e-04  1.0281741927555093e-04  1.0281499669996442e-04  1.0281748307705716e-04  1.0281958738525526e-04  1.0282121870274519e-04  1.0282230408964151e-04  1.0282284455120488e-04  1.0282284062297317e-04  1.0282229251808275e-04  1.0282126179634195e-04  1.0281981103980295e-04  1.0281771841191613e-04  1.0281721139689199e-04  1.0281927772081411e-04  1.0282090533201061e-04  1.0282199951138853e-04  1.0282255827539506e-04  1.0282258569515858e-04  1.0282208744449792e-04  1.0282110594993526e-04  1.0281968502687549e-04  1.0281760117784325e-04  1.0281847630509354e-04  1.0282130132552684e-04  1.0282298709552257e-04  1.0282404790043113e-04  1.0282481518955172e-04  1.0282509006990136e-04  1.0282486527500797e-04  1.0282408159222713e-04  1.0282268667159655e-04  1.0282066557440650e-04  1.0281849666676069e-04  1.0281885391235581e-04  1.0282101401906302e-04  1.0282297025390471e-04  1.0282434595206591e-04  1.0282514043176368e-04  1.0282538466047801e-04  1.0282507377588077e-04  1.0282423714308051e-04  1.0282311956237945e-04  1.0282137683372178e-04  1.0281872419503012e-04  1.0282091835140470e-04  1.0282293178467689e-04  1.0282435785450631e-04  1.0282518954718157e-04  1.0282546193083083e-04  1.0282518521711371e-04  1.0282439147346453e-04  1.0282318683845232e-04  1.0282166522448389e-04  1.0282065897959346e-04  1.0282266698840464e-04  1.0282407909803879e-04  1.0282491371982698e-04  1.0282521378807126e-04  1.0282498328935874e-04  1.0282423379185323e-04  1.0282304637630141e-04  1.0282153046701494e-04  1.0282418783504709e-04  1.0282562640568959e-04  1.0282668618629723e-04  1.0282722245520162e-04  1.0282723765964463e-04  1.0282674477008441e-04  1.0282568229779624e-04  1.0282386440869960e-04  1.0282427252774690e-04  1.0282592218965677e-04  1.0282699504318176e-04  1.0282749865097121e-04  1.0282748269870354e-04  1.0282692431746229e-04  1.0282580207458944e-04  1.0282419203279112e-04  1.0282588666726759e-04  1.0282701264980111e-04  1.0282756757347708e-04  1.0282758478876820e-04  1.0282704867639988e-04  1.0282599037957253e-04  1.0282379851114592e-04  1.0282562353250367e-04  1.0282673969773250e-04  1.0282730997413863e-04  1.0282737705655037e-04  1.0282689444753296e-04  1.0282587399538663e-04  1.0282662920843936e-04  1.0282803491523359e-04  1.0282888328798113e-04  1.0282910706205879e-04  1.0282879369375248e-04  1.0282815307843106e-04  1.0282677305461690e-04  1.0282456411434918e-04  1.0282699898831775e-04  1.0282828165765534e-04  1.0282902628162015e-04  1.0282930606760853e-04  1.0282907988938359e-04  1.0282431357146018e-04  1.0282821711555931e-04  1.0282445910487359e-04  1.0282693170911154e-04  1.0282827157180061e-04  1.0282907866970615e-04  1.0282938412182018e-04  1.0282918720850475e-04  1.0282837538029407e-04  1.0282805629390843e-04  1.0282878223606581e-04  1.0282916723408673e-04  1.0282904172157864e-04  1.0282828017885660e-04  1.0282859795912519e-04  1.0283004524333298e-04  1.0283053023125206e-04  1.0283033542926392e-04  1.0282975154494131e-04  1.0282875007891186e-04  1.0282905280781413e-04  1.0282994858628106e-04  1.0283048652805989e-04  1.0283063093880973e-04  1.0282899929390655e-04  1.0282991436951622e-04  1.0283065372168318e-04  1.0283066601680558e-04  1.0282967430655311e-04  1.0283035799813930e-04  1.0283050402573978e-04  1.0283110712565461e-04  1.0283133471017210e-04  1.0283101618835460e-04  1.0283031482140168e-04  1.0283124481404887e-04  1.0283014926564119e-04  1.0283138936049726e-04  1.0283019578718700e