<?xml version="1.0"?>
<VTKFile type="UnstructuredGrid"  version="0.1"  >
<UnstructuredGrid>
<Piece  NumberOfPoints="101" NumberOfCells="100">
<Points>
<DataArray  type="Float64"  NumberOfComponents="3"  format="ascii">0 0 0  1e-07 0 0  2e-07 0 0  3e-07 0 0  4e-07 0 0  5e-07 0 0  6.000000000000001e-07 0 0  7.000000000000001e-07 0 0  8.000000000000001e-07 0 0  9.000000000000001e-07 0 0  1e-06 0 0  1.1e-06 0 0  1.2e-06 0 0  1.3e-06 0 0  1.4e-06 0 0  1.5e-06 0 0  1.6e-06 0 0  1.7e-06 0 0  1.8e-06 0 0  1.9e-06 0 0  2e-06 0 0  2.1e-06 0 0  2.2e-06 0 0  2.3e-06 0 0  2.4e-06 0 0  2.5e-06 0 0  2.600000000000001e-06 0 0  2.7e-06 0 0  2.8e-06 0 0  2.9e-06 0 0  3e-06 0 0  3.1e-06 0 0  3.2e-06 0 0  3.300000000000001e-06 0 0  3.4e-06 0 0  3.5e-06 0 0  3.6e-06 0 0  3.700000000000001e-06 0 0  3.8e-06 0 0  3.900000000000001e-06 0 0  4e-06 0 0  4.100000000000001e-06 0 0  4.2e-06 0 0  4.3e-06 0 0  4.4e-06 0 0  4.5e-06 0 0  4.6e-06 0 0  4.700000000000001e-06 0 0  4.800000000000001e-06 0 0  4.900000000000001e-06 0 0  5e-06 0 0  5.1e-06 0 0  5.200000000000001e-06 0 0  5.300000000000001e-06 0 0  5.4e-06 0 0  5.500000000000001e-06 0 0  5.600000000000001e-06 0 0  5.7e-06 0 0  5.8e-06 0 0  5.9e-06 0 0  6e-06 0 0  6.100000000000001e-06 0 0  6.2e-06 0 0  6.300000000000001e-06 0 0  6.400000000000001e-06 0 0  6.5e-06 0 0  6.600000000000001e-06 0 0  6.7e-06 0 0  6.8e-06 0 0  6.900000000000001e-06 0 0  7.000000000000001e-06 0 0  7.1e-06 0 0  7.200000000000001e-06 0 0  7.3e-06 0 0  7.400000000000001e-06 0 0  7.5e-06 0 0  7.6e-06 0 0  7.700000000000001e-06 0 0  7.800000000000002e-06 0 0  7.900000000000001e-06 0 0  8e-06 0 0  8.1e-06 0 0  8.200000000000001e-06 0 0  8.300000000000002e-06 0 0  8.400000000000001e-06 0 0  8.5e-06 0 0  8.600000000000001e-06 0 0  8.700000000000001e-06 0 0  8.8e-06 0 0  8.900000000000001e-06 0 0  9e-06 0 0  9.100000000000001e-06 0 0  9.2e-06 0 0  9.300000000000001e-06 0 0  9.400000000000001e-06 0 0  9.500000000000001e-06 0 0  9.600000000000001e-06 0 0  9.7e-06 0 0  9.800000000000001e-06 0 0  9.9e-06 0 0  1e-05 0 0  </DataArray>
</Points>
<Cells>
<DataArray  type="UInt32"  Name="connectivity"  format="ascii">0 1  1 2  2 3  3 4  4 5  5 6  6 7  7 8  8 9  9 10  10 11  11 12  12 13  13 14  14 15  15 16  16 17  17 18  18 19  19 20  20 21  21 22  22 23  23 24  24 25  25 26  26 27  27 28  28 29  29 30  30 31  31 32  32 33  33 34  34 35  35 36  36 37  37 38  38 39  39 40  40 41  41 42  42 43  43 44  44 45  45 46  46 47  47 48  48 49  49 50  50 51  51 52  52 53  53 54  54 55  55 56  56 57  57 58  58 59  59 60  60 61  61 62  62 63  63 64  64 65  65 66  66 67  67 68  68 69  69 70  70 71  71 72  72 73  73 74  74 75  75 76  76 77  77 78  78 79  79 80  80 81  81 82  82 83  83 84  84 85  85 86  86 87  87 88  88 89  89 90  90 91  91 92  92 93  93 94  94 95  95 96  96 97  97 98  98 99  99 100  </DataArray>
<DataArray  type="UInt32"  Name="offsets"  format="ascii">2 4 6 8 10 12 14 16 18 20 22 24 26 28 30 32 34 36 38 40 42 44 46 48 50 52 54 56 58 60 62 64 66 68 70 72 74 76 78 80 82 84 86 88 90 92 94 96 98 100 102 104 106 108 110 112 114 116 118 120 122 124 126 128 130 132 134 136 138 140 142 144 146 148 150 152 154 156 158 160 162 164 166 168 170 172 174 176 178 180 182 184 186 188 190 192 194 196 198 200 </DataArray>
<DataArray  type="UInt8"  Name="types"  format="ascii">3 3 3 3 3 3 3 3 3 3 3 3 3 3 3 3 3 3 3 3 3 3 3 3 3 3 3 3 3 3 3 3 3 3 3 3 3 3 3 3 3 3 3 3 3 3 3 3 3 3 3 3 3 3 3 3 3 3 3 3 3 3 3 3 3 3 3 3 3 3 3 3 3 3 3 3 3 3 3 3 3 3 3 3 3 3 3 3 3 3 3 3 3 3 3 3 3 3 3 3 </DataArray>
</Cells>
<PointData  Scalars="f_38"> 
<DataArray  type="Float64"  Name="f_38"  format="ascii">0.0000000000000000e+00  5.5508622912507347e-05  9.8931543523205168e-05  1.2980965609846778e-04  1.5093476225795145e-04  1.6508608167124865e-04  1.7444083752368012e-04  1.8056657277126022e-04  1.8454835444632167e-04  1.8712056880646144e-04  1.8877314007709949e-04  1.8982955919647932e-04  1.9050171850076812e-04  1.9092748371123965e-04  1.9119602633895397e-04  1.9136471051798800e-04  1.9147025149461502e-04  1.9153603517897534e-04  1.9157688861260082e-04  1.9160217075617838e-04  1.9161776393470742e-04  1.9162735021246039e-04  1.9163322534517172e-04  1.9163681533959650e-04  1.9163900276191777e-04  1.9164033195102960e-04  1.9164113752746692e-04  1.9164162454118344e-04  1.9164191826335873e-04  1.9164209500467105e-04  1.9164220112240837e-04  1.9164226470340728e-04  1.9164230272193032e-04  1.9164232541164173e-04  1.9164233892813835e-04  1.9164234696589236e-04  1.9164235173759142e-04  1.9164235456579028e-04  1.9164235623947862e-04  1.9164235722847421e-04  1.9164235781204584e-04  1.9164235815591601e-04  1.9164235835826711e-04  1.9164235847717503e-04  1.9164235854693672e-04  1.9164235858776956e-04  1.9164235861156105e-04  1.9164235862526721e-04  1.9164235863291173e-04  1.9164235863674710e-04  1.9164235863790684e-04  1.9164235863673541e-04  1.9164235863288820e-04  1.9164235862523143e-04  1.9164235861151278e-04  1.9164235858770839e-04  1.9164235854686197e-04  1.9164235847708602e-04  1.9164235835816308e-04  1.9164235815579610e-04  1.9164235781190912e-04  1.9164235722831968e-04  1.9164235623930529e-04  1.9164235456559718e-04  1.9164235173737754e-04  1.9164234696565681e-04  1.9164233892788018e-04  1.9164232541136014e-04  1.9164230272162476e-04  1.9164226470307720e-04  1.9164220112205340e-04  1.9164209500429106e-04  1.9164191826295387e-04  1.9164162454075409e-04  1.9164113752701375e-04  1.9164033195055369e-04  1.9163900276142047e-04  1.9163681533907937e-04  1.9163322534463686e-04  1.9162735021191005e-04  1.9161776393414429e-04  1.9160217075560540e-04  1.9157688861202126e-04  1.9153603517839255e-04  1.9147025149403253e-04  1.9136471051740941e-04  1.9119602633838298e-04  1.9092748371067980e-04  1.9050171850022287e-04  1.8982955919595194e-04  1.8877314007659292e-04  1.8712056880597848e-04  1.8454835444586489e-04  1.8056657277083210e-04  1.7444083752328357e-04  1.6508608167088780e-04  1.5093476225763199e-04  1.2980965609819914e-04  9.8931543523001487e-05  5.5508622912391994e-05  0.0000000000000000e+00  </DataArray> 
</PointData> 
</Piece>
</UnstructuredGrid>
</VTKFile>