<?xml version="1.0"?>
<VTKFile type="UnstructuredGrid"  version="0.1"  >
<UnstructuredGrid>
<Piece  NumberOfPoints="101" NumberOfCells="100">
<Points>
<DataArray  type="Float64"  NumberOfComponents="3"  format="ascii">0 0 0  1e-07 0 0  2e-07 0 0  3e-07 0 0  4e-07 0 0  5e-07 0 0  6.000000000000001e-07 0 0  7.000000000000001e-07 0 0  8.000000000000001e-07 0 0  9.000000000000001e-07 0 0  1e-06 0 0  1.1e-06 0 0  1.2e-06 0 0  1.3e-06 0 0  1.4e-06 0 0  1.5e-06 0 0  1.6e-06 0 0  1.7e-06 0 0  1.8e-06 0 0  1.9e-06 0 0  2e-06 0 0  2.1e-06 0 0  2.2e-06 0 0  2.3e-06 0 0  2.4e-06 0 0  2.5e-06 0 0  2.600000000000001e-06 0 0  2.7e-06 0 0  2.8e-06 0 0  2.9e-06 0 0  3e-06 0 0  3.1e-06 0 0  3.2e-06 0 0  3.300000000000001e-06 0 0  3.4e-06 0 0  3.5e-06 0 0  3.6e-06 0 0  3.700000000000001e-06 0 0  3.8e-06 0 0  3.900000000000001e-06 0 0  4e-06 0 0  4.100000000000001e-06 0 0  4.2e-06 0 0  4.3e-06 0 0  4.4e-06 0 0  4.5e-06 0 0  4.6e-06 0 0  4.700000000000001e-06 0 0  4.800000000000001e-06 0 0  4.900000000000001e-06 0 0  5e-06 0 0  5.1e-06 0 0  5.200000000000001e-06 0 0  5.300000000000001e-06 0 0  5.4e-06 0 0  5.500000000000001e-06 0 0  5.600000000000001e-06 0 0  5.7e-06 0 0  5.8e-06 0 0  5.9e-06 0 0  6e-06 0 0  6.100000000000001e-06 0 0  6.2e-06 0 0  6.300000000000001e-06 0 0  6.400000000000001e-06 0 0  6.5e-06 0 0  6.600000000000001e-06 0 0  6.7e-06 0 0  6.8e-06 0 0  6.900000000000001e-06 0 0  7.000000000000001e-06 0 0  7.1e-06 0 0  7.200000000000001e-06 0 0  7.3e-06 0 0  7.400000000000001e-06 0 0  7.5e-06 0 0  7.6e-06 0 0  7.700000000000001e-06 0 0  7.800000000000002e-06 0 0  7.900000000000001e-06 0 0  8e-06 0 0  8.1e-06 0 0  8.200000000000001e-06 0 0  8.300000000000002e-06 0 0  8.400000000000001e-06 0 0  8.5e-06 0 0  8.600000000000001e-06 0 0  8.700000000000001e-06 0 0  8.8e-06 0 0  8.900000000000001e-06 0 0  9e-06 0 0  9.100000000000001e-06 0 0  9.2e-06 0 0  9.300000000000001e-06 0 0  9.400000000000001e-06 0 0  9.500000000000001e-06 0 0  9.600000000000001e-06 0 0  9.7e-06 0 0  9.800000000000001e-06 0 0  9.9e-06 0 0  1e-05 0 0  </DataArray>
</Points>
<Cells>
<DataArray  type="UInt32"  Name="connectivity"  format="ascii">0 1  1 2  2 3  3 4  4 5  5 6  6 7  7 8  8 9  9 10  10 11  11 12  12 13  13 14  14 15  15 16  16 17  17 18  18 19  19 20  20 21  21 22  22 23  23 24  24 25  25 26  26 27  27 28  28 29  29 30  30 31  31 32  32 33  33 34  34 35  35 36  36 37  37 38  38 39  39 40  40 41  41 42  42 43  43 44  44 45  45 46  46 47  47 48  48 49  49 50  50 51  51 52  52 53  53 54  54 55  55 56  56 57  57 58  58 59  59 60  60 61  61 62  62 63  63 64  64 65  65 66  66 67  67 68  68 69  69 70  70 71  71 72  72 73  73 74  74 75  75 76  76 77  77 78  78 79  79 80  80 81  81 82  82 83  83 84  84 85  85 86  86 87  87 88  88 89  89 90  90 91  91 92  92 93  93 94  94 95  95 96  96 97  97 98  98 99  99 100  </DataArray>
<DataArray  type="UInt32"  Name="offsets"  format="ascii">2 4 6 8 10 12 14 16 18 20 22 24 26 28 30 32 34 36 38 40 42 44 46 48 50 52 54 56 58 60 62 64 66 68 70 72 74 76 78 80 82 84 86 88 90 92 94 96 98 100 102 104 106 108 110 112 114 116 118 120 122 124 126 128 130 132 134 136 138 140 142 144 146 148 150 152 154 156 158 160 162 164 166 168 170 172 174 176 178 180 182 184 186 188 190 192 194 196 198 200 </DataArray>
<DataArray  type="UInt8"  Name="types"  format="ascii">3 3 3 3 3 3 3 3 3 3 3 3 3 3 3 3 3 3 3 3 3 3 3 3 3 3 3 3 3 3 3 3 3 3 3 3 3 3 3 3 3 3 3 3 3 3 3 3 3 3 3 3 3 3 3 3 3 3 3 3 3 3 3 3 3 3 3 3 3 3 3 3 3 3 3 3 3 3 3 3 3 3 3 3 3 3 3 3 3 3 3 3 3 3 3 3 3 3 3 3 </DataArray>
</Cells>
<PointData  Scalars="f_38"> 
<DataArray  type="Float64"  Name="f_38"  format="ascii">0.0000000000000000e+00  4.5745803030968451e-16  9.1059598973155712e-16  1.3552214258762599e-15  1.7873905627549002e-15  2.2035167312107853e-15  2.6004610424257404e-15  2.9756014626055774e-15  3.3268779595144874e-15  3.6528129878903198e-15  3.9525081203465746e-15  4.2256189886601209e-15  4.4723117811592973e-15  4.6932052849395098e-15  4.8893028448198718e-15  5.0619186481854387e-15  5.2126024796179009e-15  5.3430665858266104e-15  5.4551176252635535e-15  5.5505959250970708e-15  5.6313235019700179e-15  5.6990615813929158e-15  5.7554777177975065e-15  5.8021221011063010e-15  5.8404122487587544e-15  5.8716250239979009e-15  5.8968947813335404e-15  5.9172164011681154e-15  5.9334520166818189e-15  5.9463403353675384e-15  5.9565075943650520e-15  5.9644793448047707e-15  5.9706924209276605e-15  5.9755066036244488e-15  5.9792156275673480e-15  5.9820573017391004e-15  5.9842226129142166e-15  5.9858637605014654e-15  5.9871011304857991e-15  5.9880292582497730e-15  5.9887218574860167e-15  5.9892360080205163e-15  5.9896156018155284e-15  5.9898941461026564e-15  5.9900970175497095e-15  5.9902432532469242e-15  5.9903469543930431e-15  5.9904183678130373e-15  5.9904646994936876e-15  5.9904907035812983e-15  5.9904990799509139e-15  5.9904907035809449e-15  5.9904646994929769e-15  5.9904183678119621e-15  5.9903469543916050e-15  5.9902432532451232e-15  5.9900970175475385e-15  5.9898941461001115e-15  5.9896156018126080e-15  5.9892360080172109e-15  5.9887218574823264e-15  5.9880292582456906e-15  5.9871011304813199e-15  5.9858637604965902e-15  5.9842226129089431e-15  5.9820573017334308e-15  5.9792156275612816e-15  5.9755066036179896e-15  5.9706924209208164e-15  5.9644793447975479e-15  5.9565075943574616e-15  5.9463403353595946e-15  5.9334520166735367e-15  5.9172164011595145e-15  5.8968947813246428e-15  5.8716250239887360e-15  5.8404122487493551e-15  5.8021221010967014e-15  5.7554777177877435e-15  5.6990615813830330e-15  5.6313235019600601e-15  5.5505959250870869e-15  5.4551176252535941e-15  5.3430665858167283e-15  5.2126024796081561e-15  5.0619186481758927e-15  4.8893028448105829e-15  4.6932052849305381e-15  4.4723117811507098e-15  4.2256189886519760e-15  3.9525081203389392e-15  3.6528129878832485e-15  3.3268779595080420e-15  2.9756014625998061e-15  2.6004610424206906e-15  2.2035167312065081e-15  1.7873905627514273e-15  1.3552214258736308e-15  9.1059598972978830e-16  4.5745803030879980e-16  0.0000000000000000e+00  </DataArray> 
</PointData> 
</Piece>
</UnstructuredGrid>
</VTKFile>