<?xml version="1.0"?>
<VTKFile type="UnstructuredGrid"  version="0.1"  >
<UnstructuredGrid>
<Piece  NumberOfPoints="101" NumberOfCells="100">
<Points>
<DataArray  type="Float64"  NumberOfComponents="3"  format="ascii">0 0 0  1e-07 0 0  2e-07 0 0  3e-07 0 0  4e-07 0 0  5e-07 0 0  6.000000000000001e-07 0 0  7.000000000000001e-07 0 0  8.000000000000001e-07 0 0  9.000000000000001e-07 0 0  1e-06 0 0  1.1e-06 0 0  1.2e-06 0 0  1.3e-06 0 0  1.4e-06 0 0  1.5e-06 0 0  1.6e-06 0 0  1.7e-06 0 0  1.8e-06 0 0  1.9e-06 0 0  2e-06 0 0  2.1e-06 0 0  2.2e-06 0 0  2.3e-06 0 0  2.4e-06 0 0  2.5e-06 0 0  2.600000000000001e-06 0 0  2.7e-06 0 0  2.8e-06 0 0  2.9e-06 0 0  3e-06 0 0  3.1e-06 0 0  3.2e-06 0 0  3.300000000000001e-06 0 0  3.4e-06 0 0  3.5e-06 0 0  3.6e-06 0 0  3.700000000000001e-06 0 0  3.8e-06 0 0  3.900000000000001e-06 0 0  4e-06 0 0  4.100000000000001e-06 0 0  4.2e-06 0 0  4.3e-06 0 0  4.4e-06 0 0  4.5e-06 0 0  4.6e-06 0 0  4.700000000000001e-06 0 0  4.800000000000001e-06 0 0  4.900000000000001e-06 0 0  5e-06 0 0  5.1e-06 0 0  5.200000000000001e-06 0 0  5.300000000000001e-06 0 0  5.4e-06 0 0  5.500000000000001e-06 0 0  5.600000000000001e-06 0 0  5.7e-06 0 0  5.8e-06 0 0  5.9e-06 0 0  6e-06 0 0  6.100000000000001e-06 0 0  6.2e-06 0 0  6.300000000000001e-06 0 0  6.400000000000001e-06 0 0  6.5e-06 0 0  6.600000000000001e-06 0 0  6.7e-06 0 0  6.8e-06 0 0  6.900000000000001e-06 0 0  7.000000000000001e-06 0 0  7.1e-06 0 0  7.200000000000001e-06 0 0  7.3e-06 0 0  7.400000000000001e-06 0 0  7.5e-06 0 0  7.6e-06 0 0  7.700000000000001e-06 0 0  7.800000000000002e-06 0 0  7.900000000000001e-06 0 0  8e-06 0 0  8.1e-06 0 0  8.200000000000001e-06 0 0  8.300000000000002e-06 0 0  8.400000000000001e-06 0 0  8.5e-06 0 0  8.600000000000001e-06 0 0  8.700000000000001e-06 0 0  8.8e-06 0 0  8.900000000000001e-06 0 0  9e-06 0 0  9.100000000000001e-06 0 0  9.2e-06 0 0  9.300000000000001e-06 0 0  9.400000000000001e-06 0 0  9.500000000000001e-06 0 0  9.600000000000001e-06 0 0  9.7e-06 0 0  9.800000000000001e-06 0 0  9.9e-06 0 0  1e-05 0 0  </DataArray>
</Points>
<Cells>
<DataArray  type="UInt32"  Name="connectivity"  format="ascii">0 1  1 2  2 3  3 4  4 5  5 6  6 7  7 8  8 9  9 10  10 11  11 12  12 13  13 14  14 15  15 16  16 17  17 18  18 19  19 20  20 21  21 22  22 23  23 24  24 25  25 26  26 27  27 28  28 29  29 30  30 31  31 32  32 33  33 34  34 35  35 36  36 37  37 38  38 39  39 40  40 41  41 42  42 43  43 44  44 45  45 46  46 47  47 48  48 49  49 50  50 51  51 52  52 53  53 54  54 55  55 56  56 57  57 58  58 59  59 60  60 61  61 62  62 63  63 64  64 65  65 66  66 67  67 68  68 69  69 70  70 71  71 72  72 73  73 74  74 75  75 76  76 77  77 78  78 79  79 80  80 81  81 82  82 83  83 84  84 85  85 86  86 87  87 88  88 89  89 90  90 91  91 92  92 93  93 94  94 95  95 96  96 97  97 98  98 99  99 100  </DataArray>
<DataArray  type="UInt32"  Name="offsets"  format="ascii">2 4 6 8 10 12 14 16 18 20 22 24 26 28 30 32 34 36 38 40 42 44 46 48 50 52 54 56 58 60 62 64 66 68 70 72 74 76 78 80 82 84 86 88 90 92 94 96 98 100 102 104 106 108 110 112 114 116 118 120 122 124 126 128 130 132 134 136 138 140 142 144 146 148 150 152 154 156 158 160 162 164 166 168 170 172 174 176 178 180 182 184 186 188 190 192 194 196 198 200 </DataArray>
<DataArray  type="UInt8"  Name="types"  format="ascii">3 3 3 3 3 3 3 3 3 3 3 3 3 3 3 3 3 3 3 3 3 3 3 3 3 3 3 3 3 3 3 3 3 3 3 3 3 3 3 3 3 3 3 3 3 3 3 3 3 3 3 3 3 3 3 3 3 3 3 3 3 3 3 3 3 3 3 3 3 3 3 3 3 3 3 3 3 3 3 3 3 3 3 3 3 3 3 3 3 3 3 3 3 3 3 3 3 3 3 3 </DataArray>
</Cells>
<PointData  Scalars="f_38"> 
<DataArray  type="Float64"  Name="f_38"  format="ascii">0.0000000000000000e+00  1.6937047092018895e-01  3.3504402436354441e-01  4.9360441690493018e-01  6.4188485338174495e-01  7.7706662991170994e-01  8.9677829751345806e-01  9.9916769478729905e-01  1.0829474275712385e+00  1.1474130263349707e+00  1.1924347283624492e+00  1.2184250987438046e+00  1.2262858820570710e+00  1.2173383709379770e+00  1.1932421432775508e+00  1.1559072314382179e+00  1.1074046580206520e+00  1.0498798445726918e+00  9.8547273429912197e-01  9.1624764170355644e-01  8.4413492954247271e-01  7.7088569135017693e-01  6.9803975139391405e-01  6.2690653475422520e-01  5.5855774376921685e-01  4.9383032235525731e-01  4.3333790046190657e-01  3.7748877794337332e-01  3.2650851138761733e-01  2.8046528341539717e-01  2.3929643293382807e-01  2.0283477780815456e-01  1.7083364145459690e-01  1.4298977871857249e-01  1.1896366554423582e-01  9.8396857890967401e-02  8.0926329577214684e-02  6.6195862133641217e-02  5.3864681918578697e-02  4.3613623114086814e-02  3.5149144166735244e-02  2.8205545306107853e-02  2.2545731976990852e-02  1.7960849293304618e-02  1.4269081428444613e-02  1.1313871941247328e-02  8.9617802917987821e-03  7.1001492380639150e-03  5.6347195959365352e-03  4.4872944183070888e-03  3.5935248019891924e-03  2.9008645650084905e-03  2.3667208784080335e-03  1.9568122558141329e-03  1.6437336096877813e-03  1.4057198032874612e-03  1.2255936685816148e-03  1.0898812512036232e-03  9.8807556266811364e-04  9.1202991260207547e-04  8.5546257848746732e-04  8.1355583953011859e-04  7.8263401382965816e-04  7.5990690961842027e-04  7.4326689416011826e-04  7.3112950104190009e-04  7.2230907883226610e-04  7.1592240346823508e-04  7.1131442565686544e-04  7.0800140551226731e-04  7.0562760711361102e-04  7.0393249704211807e-04  7.0272602790836624e-04  7.0187010705350403e-04  7.0126476899236615e-04  7.0083790385613669e-04  7.0053765754174435e-04  7.0032682494585797e-04  7.0017871586462385e-04  7.0007409192288572e-04  6.9999885782855782e-04  6.9994224395201077e-04  6.9989523841910983e-04  6.9984900853956359e-04  6.9979297729802882e-04  6.9971205945393517e-04  6.9958225625015437e-04  6.9936325574291853e-04  6.9898570733295193e-04  6.9832911823639065e-04  6.9718330298557747e-04  6.9518103561918621e-04  6.9168031588711168e-04  6.8555848623590686e-04  6.7485224476973593e-04  6.5612764702913193e-04  6.2338122361538413e-04  5.6609783660877618e-04  4.6600824964236815e-04  2.9005268473507697e-04  0.0000000000000000e+00  </DataArray> 
</PointData> 
</Piece>
</UnstructuredGrid>
</VTKFile>