<?xml version="1.0"?>
<VTKFile type="UnstructuredGrid"  version="0.1"  >
<UnstructuredGrid>
<Piece  NumberOfPoints="101" NumberOfCells="100">
<Points>
<DataArray  type="Float64"  NumberOfComponents="3"  format="ascii">0 0 0  1e-07 0 0  2e-07 0 0  3e-07 0 0  4e-07 0 0  5e-07 0 0  6.000000000000001e-07 0 0  7.000000000000001e-07 0 0  8.000000000000001e-07 0 0  9.000000000000001e-07 0 0  1e-06 0 0  1.1e-06 0 0  1.2e-06 0 0  1.3e-06 0 0  1.4e-06 0 0  1.5e-06 0 0  1.6e-06 0 0  1.7e-06 0 0  1.8e-06 0 0  1.9e-06 0 0  2e-06 0 0  2.1e-06 0 0  2.2e-06 0 0  2.3e-06 0 0  2.4e-06 0 0  2.5e-06 0 0  2.600000000000001e-06 0 0  2.7e-06 0 0  2.8e-06 0 0  2.9e-06 0 0  3e-06 0 0  3.1e-06 0 0  3.2e-06 0 0  3.300000000000001e-06 0 0  3.4e-06 0 0  3.5e-06 0 0  3.6e-06 0 0  3.700000000000001e-06 0 0  3.8e-06 0 0  3.900000000000001e-06 0 0  4e-06 0 0  4.100000000000001e-06 0 0  4.2e-06 0 0  4.3e-06 0 0  4.4e-06 0 0  4.5e-06 0 0  4.6e-06 0 0  4.700000000000001e-06 0 0  4.800000000000001e-06 0 0  4.900000000000001e-06 0 0  5e-06 0 0  5.1e-06 0 0  5.200000000000001e-06 0 0  5.300000000000001e-06 0 0  5.4e-06 0 0  5.500000000000001e-06 0 0  5.600000000000001e-06 0 0  5.7e-06 0 0  5.8e-06 0 0  5.9e-06 0 0  6e-06 0 0  6.100000000000001e-06 0 0  6.2e-06 0 0  6.300000000000001e-06 0 0  6.400000000000001e-06 0 0  6.5e-06 0 0  6.600000000000001e-06 0 0  6.7e-06 0 0  6.8e-06 0 0  6.900000000000001e-06 0 0  7.000000000000001e-06 0 0  7.1e-06 0 0  7.200000000000001e-06 0 0  7.3e-06 0 0  7.400000000000001e-06 0 0  7.5e-06 0 0  7.6e-06 0 0  7.700000000000001e-06 0 0  7.800000000000002e-06 0 0  7.900000000000001e-06 0 0  8e-06 0 0  8.1e-06 0 0  8.200000000000001e-06 0 0  8.300000000000002e-06 0 0  8.400000000000001e-06 0 0  8.5e-06 0 0  8.600000000000001e-06 0 0  8.700000000000001e-06 0 0  8.8e-06 0 0  8.900000000000001e-06 0 0  9e-06 0 0  9.100000000000001e-06 0 0  9.2e-06 0 0  9.300000000000001e-06 0 0  9.400000000000001e-06 0 0  9.500000000000001e-06 0 0  9.600000000000001e-06 0 0  9.7e-06 0 0  9.800000000000001e-06 0 0  9.9e-06 0 0  1e-05 0 0  </DataArray>
</Points>
<Cells>
<DataArray  type="UInt32"  Name="connectivity"  format="ascii">0 1  1 2  2 3  3 4  4 5  5 6  6 7  7 8  8 9  9 10  10 11  11 12  12 13  13 14  14 15  15 16  16 17  17 18  18 19  19 20  20 21  21 22  22 23  23 24  24 25  25 26  26 27  27 28  28 29  29 30  30 31  31 32  32 33  33 34  34 35  35 36  36 37  37 38  38 39  39 40  40 41  41 42  42 43  43 44  44 45  45 46  46 47  47 48  48 49  49 50  50 51  51 52  52 53  53 54  54 55  55 56  56 57  57 58  58 59  59 60  60 61  61 62  62 63  63 64  64 65  65 66  66 67  67 68  68 69  69 70  70 71  71 72  72 73  73 74  74 75  75 76  76 77  77 78  78 79  79 80  80 81  81 82  82 83  83 84  84 85  85 86  86 87  87 88  88 89  89 90  90 91  91 92  92 93  93 94  94 95  95 96  96 97  97 98  98 99  99 100  </DataArray>
<DataArray  type="UInt32"  Name="offsets"  format="ascii">2 4 6 8 10 12 14 16 18 20 22 24 26 28 30 32 34 36 38 40 42 44 46 48 50 52 54 56 58 60 62 64 66 68 70 72 74 76 78 80 82 84 86 88 90 92 94 96 98 100 102 104 106 108 110 112 114 116 118 120 122 124 126 128 130 132 134 136 138 140 142 144 146 148 150 152 154 156 158 160 162 164 166 168 170 172 174 176 178 180 182 184 186 188 190 192 194 196 198 200 </DataArray>
<DataArray  type="UInt8"  Name="types"  format="ascii">3 3 3 3 3 3 3 3 3 3 3 3 3 3 3 3 3 3 3 3 3 3 3 3 3 3 3 3 3 3 3 3 3 3 3 3 3 3 3 3 3 3 3 3 3 3 3 3 3 3 3 3 3 3 3 3 3 3 3 3 3 3 3 3 3 3 3 3 3 3 3 3 3 3 3 3 3 3 3 3 3 3 3 3 3 3 3 3 3 3 3 3 3 3 3 3 3 3 3 3 </DataArray>
</Cells>
<PointData  Scalars="f_38"> 
<DataArray  type="Float64"  Name="f_38"  format="ascii">0.0000000000000000e+00  2.2980657446373492e-05  4.2825521679948464e-05  5.8458964315815461e-05  7.0107644207202053e-05  7.8478764017167623e-05  8.4345271468298761e-05  8.8381401941986225e-05  9.1119130255273777e-05  9.2955190120901004e-05  9.4175032705958586e-05  9.4979010167717606e-05  9.5505204517802339e-05  9.5847450760812281e-05  9.6068797192215807e-05  9.6211208624135414e-05  9.6302391747162948e-05  9.6360509993213437e-05  9.6397395006552402e-05  9.6420709332597164e-05  9.6435388996749492e-05  9.6444597859315481e-05  9.6450354406583860e-05  9.6453940723187790e-05  9.6456167750510991e-05  9.6457546384828754e-05  9.6458397272796166e-05  9.6458920928511107e-05  9.6459242307486825e-05  9.6459439020461850e-05  9.6459559118590313e-05  9.6459632260962951e-05  9.6459676700706598e-05  9.6459703639752454e-05  9.6459719934135967e-05  9.6459729769130304e-05  9.6459735693261986e-05  9.6459739254674165e-05  9.6459741391641105e-05  9.6459742671555106e-05  9.6459743436796072e-05  9.6459743893539696e-05  9.6459744165693916e-05  9.6459744327579504e-05  9.6459744423685841e-05  9.6459744480585679e-05  9.6459744514102827e-05  9.6459744533609277e-05  9.6459744544586851e-05  9.6459744550133995e-05  9.6459744551821732e-05  9.6459744550129347e-05  9.6459744544577419e-05  9.6459744533594925e-05  9.6459744514083433e-05  9.6459744480561135e-05  9.6459744423655876e-05  9.6459744327543874e-05  9.6459744165652324e-05  9.6459743893491856e-05  9.6459743436741631e-05  9.6459742671493672e-05  9.6459741391572313e-05  9.6459739254597701e-05  9.6459735693177473e-05  9.6459729769037415e-05  9.6459719934034364e-05  9.6459703639641866e-05  9.6459676700586834e-05  9.6459632260833850e-05  9.6459559118451752e-05  9.6459439020313788e-05  9.6459242307329359e-05  9.6458920928344397e-05  9.6458397272620485e-05  9.6457546384644548e-05  9.6456167750318789e-05  9.6453940722988229e-05  9.6450354406377712e-05  9.6444597859103641e-05  9.6435388996532991e-05  9.6420709332377071e-05  9.6397395006329924e-05  9.6360509992989821e-05  9.6302391746939494e-05  9.6211208623913424e-05  9.6068797191996636e-05  9.5847450760597148e-05  9.5505204517592506e-05  9.4979010167514237e-05  9.4175032705762766e-05  9.2955190120713789e-05  9.1119130255096171e-05  8.8381401941819298e-05  8.4345271468143937e-05  7.8478764017026920e-05  7.0107644207078237e-05  5.8458964315712936e-05  4.2825521679872943e-05  2.2980657446332669e-05  0.0000000000000000e+00  </DataArray> 
</PointData> 
</Piece>
</UnstructuredGrid>
</VTKFile>