<?xml version="1.0"?>
<VTKFile type="UnstructuredGrid"  version="0.1"  >
<UnstructuredGrid>
<Piece  NumberOfPoints="101" NumberOfCells="100">
<Points>
<DataArray  type="Float64"  NumberOfComponents="3"  format="ascii">0 0 0  1e-07 0 0  2e-07 0 0  3e-07 0 0  4e-07 0 0  5e-07 0 0  6.000000000000001e-07 0 0  7.000000000000001e-07 0 0  8.000000000000001e-07 0 0  9.000000000000001e-07 0 0  1e-06 0 0  1.1e-06 0 0  1.2e-06 0 0  1.3e-06 0 0  1.4e-06 0 0  1.5e-06 0 0  1.6e-06 0 0  1.7e-06 0 0  1.8e-06 0 0  1.9e-06 0 0  2e-06 0 0  2.1e-06 0 0  2.2e-06 0 0  2.3e-06 0 0  2.4e-06 0 0  2.5e-06 0 0  2.600000000000001e-06 0 0  2.7e-06 0 0  2.8e-06 0 0  2.9e-06 0 0  3e-06 0 0  3.1e-06 0 0  3.2e-06 0 0  3.300000000000001e-06 0 0  3.4e-06 0 0  3.5e-06 0 0  3.6e-06 0 0  3.700000000000001e-06 0 0  3.8e-06 0 0  3.900000000000001e-06 0 0  4e-06 0 0  4.100000000000001e-06 0 0  4.2e-06 0 0  4.3e-06 0 0  4.4e-06 0 0  4.5e-06 0 0  4.6e-06 0 0  4.700000000000001e-06 0 0  4.800000000000001e-06 0 0  4.900000000000001e-06 0 0  5e-06 0 0  5.1e-06 0 0  5.200000000000001e-06 0 0  5.300000000000001e-06 0 0  5.4e-06 0 0  5.500000000000001e-06 0 0  5.600000000000001e-06 0 0  5.7e-06 0 0  5.8e-06 0 0  5.9e-06 0 0  6e-06 0 0  6.100000000000001e-06 0 0  6.2e-06 0 0  6.300000000000001e-06 0 0  6.400000000000001e-06 0 0  6.5e-06 0 0  6.600000000000001e-06 0 0  6.7e-06 0 0  6.8e-06 0 0  6.900000000000001e-06 0 0  7.000000000000001e-06 0 0  7.1e-06 0 0  7.200000000000001e-06 0 0  7.3e-06 0 0  7.400000000000001e-06 0 0  7.5e-06 0 0  7.6e-06 0 0  7.700000000000001e-06 0 0  7.800000000000002e-06 0 0  7.900000000000001e-06 0 0  8e-06 0 0  8.1e-06 0 0  8.200000000000001e-06 0 0  8.300000000000002e-06 0 0  8.400000000000001e-06 0 0  8.5e-06 0 0  8.600000000000001e-06 0 0  8.700000000000001e-06 0 0  8.8e-06 0 0  8.900000000000001e-06 0 0  9e-06 0 0  9.100000000000001e-06 0 0  9.2e-06 0 0  9.300000000000001e-06 0 0  9.400000000000001e-06 0 0  9.500000000000001e-06 0 0  9.600000000000001e-06 0 0  9.7e-06 0 0  9.800000000000001e-06 0 0  9.9e-06 0 0  1e-05 0 0  </DataArray>
</Points>
<Cells>
<DataArray  type="UInt32"  Name="connectivity"  format="ascii">0 1  1 2  2 3  3 4  4 5  5 6  6 7  7 8  8 9  9 10  10 11  11 12  12 13  13 14  14 15  15 16  16 17  17 18  18 19  19 20  20 21  21 22  22 23  23 24  24 25  25 26  26 27  27 28  28 29  29 30  30 31  31 32  32 33  33 34  34 35  35 36  36 37  37 38  38 39  39 40  40 41  41 42  42 43  43 44  44 45  45 46  46 47  47 48  48 49  49 50  50 51  51 52  52 53  53 54  54 55  55 56  56 57  57 58  58 59  59 60  60 61  61 62  62 63  63 64  64 65  65 66  66 67  67 68  68 69  69 70  70 71  71 72  72 73  73 74  74 75  75 76  76 77  77 78  78 79  79 80  80 81  81 82  82 83  83 84  84 85  85 86  86 87  87 88  88 89  89 90  90 91  91 92  92 93  93 94  94 95  95 96  96 97  97 98  98 99  99 100  </DataArray>
<DataArray  type="UInt32"  Name="offsets"  format="ascii">2 4 6 8 10 12 14 16 18 20 22 24 26 28 30 32 34 36 38 40 42 44 46 48 50 52 54 56 58 60 62 64 66 68 70 72 74 76 78 80 82 84 86 88 90 92 94 96 98 100 102 104 106 108 110 112 114 116 118 120 122 124 126 128 130 132 134 136 138 140 142 144 146 148 150 152 154 156 158 160 162 164 166 168 170 172 174 176 178 180 182 184 186 188 190 192 194 196 198 200 </DataArray>
<DataArray  type="UInt8"  Name="types"  format="ascii">3 3 3 3 3 3 3 3 3 3 3 3 3 3 3 3 3 3 3 3 3 3 3 3 3 3 3 3 3 3 3 3 3 3 3 3 3 3 3 3 3 3 3 3 3 3 3 3 3 3 3 3 3 3 3 3 3 3 3 3 3 3 3 3 3 3 3 3 3 3 3 3 3 3 3 3 3 3 3 3 3 3 3 3 3 3 3 3 3 3 3 3 3 3 3 3 3 3 3 3 </DataArray>
</Cells>
<PointData  Scalars="f_1902"> 
<DataArray  type="Float64"  Name="f_1902"  format="ascii">1.2924697071141050e-19  1.8325544702114279e-03  1.7541278172484222e-03  1.9124864366202980e-03  1.9679680920584525e-03  2.0160322530187727e-03  2.0443749437386019e-03  2.0636689582273042e-03  2.0760564205538914e-03  2.0841987392991460e-03  2.0894997237511882e-03  2.0929643857721669e-03  2.0952252419720531e-03  2.0967015235269478e-03  2.0976652405555315e-03  2.0982944246542390e-03  2.0987051831284857e-03  2.0989733489518870e-03  2.0991484211096111e-03  2.0992627173953273e-03  2.0993373359109841e-03  2.0993860507550017e-03  2.0994178543281613e-03  2.0994386173482271e-03  2.0994521725214263e-03  2.0994610220383546e-03  2.0994667994588016e-03  2.0994705712555376e-03  2.0994730336773453e-03  2.0994746412715828e-03  2.0994756907903233e-03  2.0994763759686857e-03  2.0994768232869636e-03  2.0994771153180006e-03  2.0994773059695750e-03  2.0994774304354167e-03  2.0994775116917443e-03  2.0994775647385426e-03  2.0994775993684648e-03  2.0994776219745311e-03  2.0994776367302412e-03  2.0994776463600126e-03  2.0994776526421042e-03  2.0994776567369046e-03  2.0994776594011658e-03  2.0994776611277140e-03  2.0994776622364842e-03  2.0994776629335967e-03  2.0994776633494845e-03  2.0994776635630038e-03  2.0994776636160798e-03  2.0994776635215144e-03  2.0994776632654415e-03  2.0994776628048685e-03  2.0994776620598685e-03  2.0994776608989291e-03  2.0994776591148419e-03  2.0994776563865985e-03  2.0994776522202914e-03  2.0994776458581285e-03  2.0994776361387127e-03  2.0994776212828483e-03  2.0994775985652804e-03  2.0994775638117913e-03  2.0994775106288237e-03  2.0994774292233762e-03  2.0994773045953773e-03  2.0994771137687984e-03  2.0994768215504243e-03  2.0994763740333493e-03  2.0994756886459744e-03  2.0994746389096574e-03  2.0994730310913163e-03  2.0994705684413174e-03  2.0994667964151104e-03  2.0994610187670517e-03  2.0994521690278103e-03  2.0994386136412579e-03  2.0994178504206346e-03  2.0993860466636421e-03  2.0993373316564503e-03  2.0992627130021571e-03  2.0991484166060642e-03  2.0989733443697338e-03  2.0987051785026976e-03  2.0982944200226266e-03  2.0976652359583066e-03  2.0967015190062267e-03  2.0952252375712990e-03  2.0929643815355849e-03  2.0894997197230549e-03  2.0841987355231595e-03  2.0760564170722640e-03  2.0636689550805978e-03  2.0443749409630729e-03  2.0160322506516614e-03  1.9679680901188504e-03  1.9124864351619630e-03  1.7541278162168765e-03  1.8325544697601556e-03  -1.2924697071140959e-19  </DataArray> 
</PointData> 
</Piece>
</UnstructuredGrid>
</VTKFile>