<?xml version="1.0"?>
<VTKFile type="UnstructuredGrid"  version="0.1"  >
<UnstructuredGrid>
<Piece  NumberOfPoints="101" NumberOfCells="100">
<Points>
<DataArray  type="Float64"  NumberOfComponents="3"  format="ascii">0 0 0  1e-07 0 0  2e-07 0 0  3e-07 0 0  4e-07 0 0  5e-07 0 0  6.000000000000001e-07 0 0  7.000000000000001e-07 0 0  8.000000000000001e-07 0 0  9.000000000000001e-07 0 0  1e-06 0 0  1.1e-06 0 0  1.2e-06 0 0  1.3e-06 0 0  1.4e-06 0 0  1.5e-06 0 0  1.6e-06 0 0  1.7e-06 0 0  1.8e-06 0 0  1.9e-06 0 0  2e-06 0 0  2.1e-06 0 0  2.2e-06 0 0  2.3e-06 0 0  2.4e-06 0 0  2.5e-06 0 0  2.600000000000001e-06 0 0  2.7e-06 0 0  2.8e-06 0 0  2.9e-06 0 0  3e-06 0 0  3.1e-06 0 0  3.2e-06 0 0  3.300000000000001e-06 0 0  3.4e-06 0 0  3.5e-06 0 0  3.6e-06 0 0  3.700000000000001e-06 0 0  3.8e-06 0 0  3.900000000000001e-06 0 0  4e-06 0 0  4.100000000000001e-06 0 0  4.2e-06 0 0  4.3e-06 0 0  4.4e-06 0 0  4.5e-06 0 0  4.6e-06 0 0  4.700000000000001e-06 0 0  4.800000000000001e-06 0 0  4.900000000000001e-06 0 0  5e-06 0 0  5.1e-06 0 0  5.200000000000001e-06 0 0  5.300000000000001e-06 0 0  5.4e-06 0 0  5.500000000000001e-06 0 0  5.600000000000001e-06 0 0  5.7e-06 0 0  5.8e-06 0 0  5.9e-06 0 0  6e-06 0 0  6.100000000000001e-06 0 0  6.2e-06 0 0  6.300000000000001e-06 0 0  6.400000000000001e-06 0 0  6.5e-06 0 0  6.600000000000001e-06 0 0  6.7e-06 0 0  6.8e-06 0 0  6.900000000000001e-06 0 0  7.000000000000001e-06 0 0  7.1e-06 0 0  7.200000000000001e-06 0 0  7.3e-06 0 0  7.400000000000001e-06 0 0  7.5e-06 0 0  7.6e-06 0 0  7.700000000000001e-06 0 0  7.800000000000002e-06 0 0  7.900000000000001e-06 0 0  8e-06 0 0  8.1e-06 0 0  8.200000000000001e-06 0 0  8.300000000000002e-06 0 0  8.400000000000001e-06 0 0  8.5e-06 0 0  8.600000000000001e-06 0 0  8.700000000000001e-06 0 0  8.8e-06 0 0  8.900000000000001e-06 0 0  9e-06 0 0  9.100000000000001e-06 0 0  9.2e-06 0 0  9.300000000000001e-06 0 0  9.400000000000001e-06 0 0  9.500000000000001e-06 0 0  9.600000000000001e-06 0 0  9.7e-06 0 0  9.800000000000001e-06 0 0  9.9e-06 0 0  1e-05 0 0  </DataArray>
</Points>
<Cells>
<DataArray  type="UInt32"  Name="connectivity"  format="ascii">0 1  1 2  2 3  3 4  4 5  5 6  6 7  7 8  8 9  9 10  10 11  11 12  12 13  13 14  14 15  15 16  16 17  17 18  18 19  19 20  20 21  21 22  22 23  23 24  24 25  25 26  26 27  27 28  28 29  29 30  30 31  31 32  32 33  33 34  34 35  35 36  36 37  37 38  38 39  39 40  40 41  41 42  42 43  43 44  44 45  45 46  46 47  47 48  48 49  49 50  50 51  51 52  52 53  53 54  54 55  55 56  56 57  57 58  58 59  59 60  60 61  61 62  62 63  63 64  64 65  65 66  66 67  67 68  68 69  69 70  70 71  71 72  72 73  73 74  74 75  75 76  76 77  77 78  78 79  79 80  80 81  81 82  82 83  83 84  84 85  85 86  86 87  87 88  88 89  89 90  90 91  91 92  92 93  93 94  94 95  95 96  96 97  97 98  98 99  99 100  </DataArray>
<DataArray  type="UInt32"  Name="offsets"  format="ascii">2 4 6 8 10 12 14 16 18 20 22 24 26 28 30 32 34 36 38 40 42 44 46 48 50 52 54 56 58 60 62 64 66 68 70 72 74 76 78 80 82 84 86 88 90 92 94 96 98 100 102 104 106 108 110 112 114 116 118 120 122 124 126 128 130 132 134 136 138 140 142 144 146 148 150 152 154 156 158 160 162 164 166 168 170 172 174 176 178 180 182 184 186 188 190 192 194 196 198 200 </DataArray>
<DataArray  type="UInt8"  Name="types"  format="ascii">3 3 3 3 3 3 3 3 3 3 3 3 3 3 3 3 3 3 3 3 3 3 3 3 3 3 3 3 3 3 3 3 3 3 3 3 3 3 3 3 3 3 3 3 3 3 3 3 3 3 3 3 3 3 3 3 3 3 3 3 3 3 3 3 3 3 3 3 3 3 3 3 3 3 3 3 3 3 3 3 3 3 3 3 3 3 3 3 3 3 3 3 3 3 3 3 3 3 3 3 </DataArray>
</Cells>
<PointData  Scalars="f_5422"> 
<DataArray  type="Float64"  Name="f_5422"  format="ascii">-9.8607613152626421e-25  1.3446900627545355e-08  2.6675612570573869e-08  3.9480512957704437e-08  5.1679622520653685e-08  6.3123057608382629e-08  7.3698192834746811e-08  8.3331421174711833e-08  9.1986856203000454e-08  9.9662628923586750e-08  1.0638557083742369e-07  1.1220507029968781e-07  1.1718678405259699e-07  1.2140672667624414e-07  1.2494608692022137e-07  1.2788695921964980e-07  1.3030904704000110e-07  1.3228729810226710e-07  1.3389036918194086e-07  1.3517978516017304e-07  1.3620964666825009e-07  1.3702674616196859e-07  1.3767096751503561e-07  1.3817586436888223e-07  1.3856933396886756e-07  1.3887432369972011e-07  1.3910952563522537e-07  1.3929002950770911e-07  1.3942791646327838e-07  1.3953278500201940e-07  1.3961220698612222e-07  1.3967211598088271e-07  1.3971713292282078e-07  1.3975083559555427e-07  1.3977597898809865e-07  1.3979467359677235e-07  1.3980852833246386e-07  1.3981876407498656e-07  1.3982630319378649e-07  1.3983183960984310e-07  1.3983589325867472e-07  1.3983885215898777e-07  1.3984100471052427e-07  1.3984256434255521e-07  1.3984368820911139e-07  1.3984449127233044e-07  1.3984505682310518e-07  1.3984544424957758e-07  1.3984569467001807e-07  1.3984583488873161e-07  1.3984588000402029e-07  1.3984583488873166e-07  1.3984569467001814e-07  1.3984544424957756e-07  1.3984505682310515e-07  1.3984449127233036e-07  1.3984368820911118e-07  1.3984256434255497e-07  1.3984100471052390e-07  1.3983885215898732e-07  1.3983589325867417e-07  1.3983183960984255e-07  1.3982630319378588e-07  1.3981876407498588e-07  1.3980852833246330e-07  1.3979467359677182e-07  1.3977597898809820e-07  1.3975083559555382e-07  1.3971713292282046e-07  1.3967211598088252e-07  1.3961220698612206e-07  1.3953278500201938e-07  1.3942791646327830e-07  1.3929002950770911e-07  1.3910952563522532e-07  1.3887432369972019e-07  1.3856933396886759e-07  1.3817586436888233e-07  1.3767096751503579e-07  1.3702674616196880e-07  1.3620964666825032e-07  1.3517978516017328e-07  1.3389036918194123e-07  1.3228729810226747e-07  1.3030904704000147e-07  1.2788695921965020e-07  1.2494608692022174e-07  1.2140672667624441e-07  1.1718678405259723e-07  1.1220507029968803e-07  1.0638557083742393e-07  9.9662628923586949e-08  9.1986856203000666e-08  8.3331421174711979e-08  7.3698192834746825e-08  6.3123057608382722e-08  5.1679622520653685e-08  3.9480512957704530e-08  2.6675612570573879e-08  1.3446900627545468e-08  1.9721522630525145e-24  </DataArray> 
</PointData> 
</Piece>
</UnstructuredGrid>
</VTKFile>