<?xml version="1.0"?>
<VTKFile type="UnstructuredGrid"  version="0.1"  >
<UnstructuredGrid>
<Piece  NumberOfPoints="101" NumberOfCells="100">
<Points>
<DataArray  type="Float64"  NumberOfComponents="3"  format="ascii">0 0 0  1e-07 0 0  2e-07 0 0  3e-07 0 0  4e-07 0 0  5e-07 0 0  6.000000000000001e-07 0 0  7.000000000000001e-07 0 0  8.000000000000001e-07 0 0  9.000000000000001e-07 0 0  1e-06 0 0  1.1e-06 0 0  1.2e-06 0 0  1.3e-06 0 0  1.4e-06 0 0  1.5e-06 0 0  1.6e-06 0 0  1.7e-06 0 0  1.8e-06 0 0  1.9e-06 0 0  2e-06 0 0  2.1e-06 0 0  2.2e-06 0 0  2.3e-06 0 0  2.4e-06 0 0  2.5e-06 0 0  2.600000000000001e-06 0 0  2.7e-06 0 0  2.8e-06 0 0  2.9e-06 0 0  3e-06 0 0  3.1e-06 0 0  3.2e-06 0 0  3.300000000000001e-06 0 0  3.4e-06 0 0  3.5e-06 0 0  3.6e-06 0 0  3.700000000000001e-06 0 0  3.8e-06 0 0  3.900000000000001e-06 0 0  4e-06 0 0  4.100000000000001e-06 0 0  4.2e-06 0 0  4.3e-06 0 0  4.4e-06 0 0  4.5e-06 0 0  4.6e-06 0 0  4.700000000000001e-06 0 0  4.800000000000001e-06 0 0  4.900000000000001e-06 0 0  5e-06 0 0  5.1e-06 0 0  5.200000000000001e-06 0 0  5.300000000000001e-06 0 0  5.4e-06 0 0  5.500000000000001e-06 0 0  5.600000000000001e-06 0 0  5.7e-06 0 0  5.8e-06 0 0  5.9e-06 0 0  6e-06 0 0  6.100000000000001e-06 0 0  6.2e-06 0 0  6.300000000000001e-06 0 0  6.400000000000001e-06 0 0  6.5e-06 0 0  6.600000000000001e-06 0 0  6.7e-06 0 0  6.8e-06 0 0  6.900000000000001e-06 0 0  7.000000000000001e-06 0 0  7.1e-06 0 0  7.200000000000001e-06 0 0  7.3e-06 0 0  7.400000000000001e-06 0 0  7.5e-06 0 0  7.6e-06 0 0  7.700000000000001e-06 0 0  7.800000000000002e-06 0 0  7.900000000000001e-06 0 0  8e-06 0 0  8.1e-06 0 0  8.200000000000001e-06 0 0  8.300000000000002e-06 0 0  8.400000000000001e-06 0 0  8.5e-06 0 0  8.600000000000001e-06 0 0  8.700000000000001e-06 0 0  8.8e-06 0 0  8.900000000000001e-06 0 0  9e-06 0 0  9.100000000000001e-06 0 0  9.2e-06 0 0  9.300000000000001e-06 0 0  9.400000000000001e-06 0 0  9.500000000000001e-06 0 0  9.600000000000001e-06 0 0  9.7e-06 0 0  9.800000000000001e-06 0 0  9.9e-06 0 0  1e-05 0 0  </DataArray>
</Points>
<Cells>
<DataArray  type="UInt32"  Name="connectivity"  format="ascii">0 1  1 2  2 3  3 4  4 5  5 6  6 7  7 8  8 9  9 10  10 11  11 12  12 13  13 14  14 15  15 16  16 17  17 18  18 19  19 20  20 21  21 22  22 23  23 24  24 25  25 26  26 27  27 28  28 29  29 30  30 31  31 32  32 33  33 34  34 35  35 36  36 37  37 38  38 39  39 40  40 41  41 42  42 43  43 44  44 45  45 46  46 47  47 48  48 49  49 50  50 51  51 52  52 53  53 54  54 55  55 56  56 57  57 58  58 59  59 60  60 61  61 62  62 63  63 64  64 65  65 66  66 67  67 68  68 69  69 70  70 71  71 72  72 73  73 74  74 75  75 76  76 77  77 78  78 79  79 80  80 81  81 82  82 83  83 84  84 85  85 86  86 87  87 88  88 89  89 90  90 91  91 92  92 93  93 94  94 95  95 96  96 97  97 98  98 99  99 100  </DataArray>
<DataArray  type="UInt32"  Name="offsets"  format="ascii">2 4 6 8 10 12 14 16 18 20 22 24 26 28 30 32 34 36 38 40 42 44 46 48 50 52 54 56 58 60 62 64 66 68 70 72 74 76 78 80 82 84 86 88 90 92 94 96 98 100 102 104 106 108 110 112 114 116 118 120 122 124 126 128 130 132 134 136 138 140 142 144 146 148 150 152 154 156 158 160 162 164 166 168 170 172 174 176 178 180 182 184 186 188 190 192 194 196 198 200 </DataArray>
<DataArray  type="UInt8"  Name="types"  format="ascii">3 3 3 3 3 3 3 3 3 3 3 3 3 3 3 3 3 3 3 3 3 3 3 3 3 3 3 3 3 3 3 3 3 3 3 3 3 3 3 3 3 3 3 3 3 3 3 3 3 3 3 3 3 3 3 3 3 3 3 3 3 3 3 3 3 3 3 3 3 3 3 3 3 3 3 3 3 3 3 3 3 3 3 3 3 3 3 3 3 3 3 3 3 3 3 3 3 3 3 3 </DataArray>
</Cells>
<PointData  Scalars="f_1132"> 
<DataArray  type="Float64"  Name="f_1132"  format="ascii">0.0000000000000000e+00  1.8580929919161991e-03  1.7645623874534325e-03  1.9323767261068688e-03  1.9819340557320699e-03  2.0277452669315672e-03  2.0529957666056485e-03  2.0700277510570489e-03  2.0805986793226627e-03  2.0874068987999568e-03  2.0917349314038404e-03  2.0945078869977845e-03  2.0962826999143939e-03  2.0974215723205693e-03  2.0981530747221930e-03  2.0986236492099701e-03  2.0989267486153651e-03  2.0991222454441578e-03  2.0992485171674028e-03  2.0993302072796673e-03  2.0993831574227032e-03  2.0994175632115465e-03  2.0994399923600069e-03  2.0994546783864605e-03  2.0994643508293145e-03  2.0994707688686896e-03  2.0994750647840999e-03  2.0994779653579444e-03  2.0994799348337187e-03  2.0994812673886991e-03  2.0994821470551712e-03  2.0994826865943558e-03  2.0994829526977811e-03  2.0994829822387176e-03  2.0994827925951169e-03  2.0994823879784416e-03  2.0994817630122821e-03  2.0994809043699096e-03  2.0994797910079055e-03  2.0994783933628389e-03  2.0994766717687212e-03  2.0994745742783740e-03  2.0994720340148368e-03  2.0994689661297684e-03  2.0994652643993557e-03  2.0994607974430825e-03  2.0994554045080036e-03  2.0994488907235369e-03  2.0994410217025235e-03  2.0994315173441355e-03  2.0994200446766776e-03  2.0994062095407149e-03  2.0993895468022811e-03  2.0993695085027332e-03  2.0993454487321993e-03  2.0993166028240779e-03  2.0992820564227953e-03  2.0992406967988131e-03  2.0991911343229606e-03  2.0991315764184713e-03  2.0990596302561761e-03  2.0989720053460614e-03  2.0988640852429362e-03  2.0987293417623182e-03  2.0985585785052532e-03  2.0983390154469483e-03  2.0980532634488087e-03  2.0976782859347446e-03  2.0971845047916540e-03  2.0965352827897353e-03  2.0956871098877293e-03  2.0945909314651380e-03  2.0931951588491460e-03  2.0914509451901270e-03  2.0893201831261570e-03  2.0867862770225527e-03  2.0838667076646688e-03  2.0806252329148749e-03  2.0771771325089824e-03  2.0736901436657915e-03  2.0703748960284180e-03  2.0674877017472066e-03  2.0652508237935341e-03  2.0637901924571737e-03  2.0630970864174564e-03  2.0630321563778211e-03  2.0633570985813766e-03  2.0637699329537711e-03  2.0639149059594984e-03  2.0633747618317511e-03  2.0616392016045114e-03  2.0580625857258544e-03  2.0516775447137598e-03  2.0411822230425956e-03  2.0240251871508417e-03  1.9983099260547925e-03  1.9531094335734529e-03  1.9019023328587423e-03  1.7449688930599523e-03  1.8317705599802524e-03  3.8774091213422874e-19  </DataArray> 
</PointData> 
</Piece>
</UnstructuredGrid>
</VTKFile>