<?xml version="1.0"?>
<VTKFile type="UnstructuredGrid"  version="0.1"  >
<UnstructuredGrid>
<Piece  NumberOfPoints="101" NumberOfCells="100">
<Points>
<DataArray  type="Float64"  NumberOfComponents="3"  format="ascii">0 0 0  1e-07 0 0  2e-07 0 0  3e-07 0 0  4e-07 0 0  5e-07 0 0  6.000000000000001e-07 0 0  7.000000000000001e-07 0 0  8.000000000000001e-07 0 0  9.000000000000001e-07 0 0  1e-06 0 0  1.1e-06 0 0  1.2e-06 0 0  1.3e-06 0 0  1.4e-06 0 0  1.5e-06 0 0  1.6e-06 0 0  1.7e-06 0 0  1.8e-06 0 0  1.9e-06 0 0  2e-06 0 0  2.1e-06 0 0  2.2e-06 0 0  2.3e-06 0 0  2.4e-06 0 0  2.5e-06 0 0  2.600000000000001e-06 0 0  2.7e-06 0 0  2.8e-06 0 0  2.9e-06 0 0  3e-06 0 0  3.1e-06 0 0  3.2e-06 0 0  3.300000000000001e-06 0 0  3.4e-06 0 0  3.5e-06 0 0  3.6e-06 0 0  3.700000000000001e-06 0 0  3.8e-06 0 0  3.900000000000001e-06 0 0  4e-06 0 0  4.100000000000001e-06 0 0  4.2e-06 0 0  4.3e-06 0 0  4.4e-06 0 0  4.5e-06 0 0  4.6e-06 0 0  4.700000000000001e-06 0 0  4.800000000000001e-06 0 0  4.900000000000001e-06 0 0  5e-06 0 0  5.1e-06 0 0  5.200000000000001e-06 0 0  5.300000000000001e-06 0 0  5.4e-06 0 0  5.500000000000001e-06 0 0  5.600000000000001e-06 0 0  5.7e-06 0 0  5.8e-06 0 0  5.9e-06 0 0  6e-06 0 0  6.100000000000001e-06 0 0  6.2e-06 0 0  6.300000000000001e-06 0 0  6.400000000000001e-06 0 0  6.5e-06 0 0  6.600000000000001e-06 0 0  6.7e-06 0 0  6.8e-06 0 0  6.900000000000001e-06 0 0  7.000000000000001e-06 0 0  7.1e-06 0 0  7.200000000000001e-06 0 0  7.3e-06 0 0  7.400000000000001e-06 0 0  7.5e-06 0 0  7.6e-06 0 0  7.700000000000001e-06 0 0  7.800000000000002e-06 0 0  7.900000000000001e-06 0 0  8e-06 0 0  8.1e-06 0 0  8.200000000000001e-06 0 0  8.300000000000002e-06 0 0  8.400000000000001e-06 0 0  8.5e-06 0 0  8.600000000000001e-06 0 0  8.700000000000001e-06 0 0  8.8e-06 0 0  8.900000000000001e-06 0 0  9e-06 0 0  9.100000000000001e-06 0 0  9.2e-06 0 0  9.300000000000001e-06 0 0  9.400000000000001e-06 0 0  9.500000000000001e-06 0 0  9.600000000000001e-06 0 0  9.7e-06 0 0  9.800000000000001e-06 0 0  9.9e-06 0 0  1e-05 0 0  </DataArray>
</Points>
<Cells>
<DataArray  type="UInt32"  Name="connectivity"  format="ascii">0 1  1 2  2 3  3 4  4 5  5 6  6 7  7 8  8 9  9 10  10 11  11 12  12 13  13 14  14 15  15 16  16 17  17 18  18 19  19 20  20 21  21 22  22 23  23 24  24 25  25 26  26 27  27 28  28 29  29 30  30 31  31 32  32 33  33 34  34 35  35 36  36 37  37 38  38 39  39 40  40 41  41 42  42 43  43 44  44 45  45 46  46 47  47 48  48 49  49 50  50 51  51 52  52 53  53 54  54 55  55 56  56 57  57 58  58 59  59 60  60 61  61 62  62 63  63 64  64 65  65 66  66 67  67 68  68 69  69 70  70 71  71 72  72 73  73 74  74 75  75 76  76 77  77 78  78 79  79 80  80 81  81 82  82 83  83 84  84 85  85 86  86 87  87 88  88 89  89 90  90 91  91 92  92 93  93 94  94 95  95 96  96 97  97 98  98 99  99 100  </DataArray>
<DataArray  type="UInt32"  Name="offsets"  format="ascii">2 4 6 8 10 12 14 16 18 20 22 24 26 28 30 32 34 36 38 40 42 44 46 48 50 52 54 56 58 60 62 64 66 68 70 72 74 76 78 80 82 84 86 88 90 92 94 96 98 100 102 104 106 108 110 112 114 116 118 120 122 124 126 128 130 132 134 136 138 140 142 144 146 148 150 152 154 156 158 160 162 164 166 168 170 172 174 176 178 180 182 184 186 188 190 192 194 196 198 200 </DataArray>
<DataArray  type="UInt8"  Name="types"  format="ascii">3 3 3 3 3 3 3 3 3 3 3 3 3 3 3 3 3 3 3 3 3 3 3 3 3 3 3 3 3 3 3 3 3 3 3 3 3 3 3 3 3 3 3 3 3 3 3 3 3 3 3 3 3 3 3 3 3 3 3 3 3 3 3 3 3 3 3 3 3 3 3 3 3 3 3 3 3 3 3 3 3 3 3 3 3 3 3 3 3 3 3 3 3 3 3 3 3 3 3 3 </DataArray>
</Cells>
<PointData  Scalars="f_857"> 
<DataArray  type="Float64"  Name="f_857"  format="ascii">-2.5849394142282100e-19  2.0122673201989532e-03  1.8558266206929364e-03  1.9864016989317203e-03  2.0139160146993022e-03  2.0466795410394828e-03  2.0642074040986367e-03  2.0766691904382760e-03  2.0845364602004790e-03  2.0897465407756508e-03  2.0931317038810561e-03  2.0953508236781419e-03  2.0968035998031190e-03  2.0977596027773452e-03  2.0983931013326238e-03  2.0988190151147966e-03  2.0991128435890881e-03  2.0993246064219587e-03  2.0994876598749742e-03  2.0996244714912558e-03  2.0997503019995652e-03  2.0998755218940403e-03  2.1000070103075127e-03  2.1001489428234916e-03  2.1003031789325606e-03  2.1004694066220982e-03  2.1006451722758719e-03  2.1008259085303119e-03  2.1010050605384254e-03  2.1011743930455396e-03  2.1013245291740903e-03  2.1014457230210917e-03  2.1015288047978907e-03  2.1015661708035241e-03  2.1015526409447517e-03  2.1014859965610882e-03  2.1013670551931827e-03  2.1011992300013532e-03  2.1009876296533545e-03  2.1007378398603910e-03  2.1004545628798936e-03  2.1001402736424914e-03  2.0997939988141234e-03  2.0994102636794107e-03  2.0989782031118590e-03  2.0984808110478576e-03  2.0978943155621518e-03  2.0971877190772473e-03  2.0963226379294140e-03  2.0952537032024408e-03  2.0939298929213766e-03  2.0922971201950821e-03  2.0903018331626679e-03  2.0878938644673557e-03  2.0850240061302478e-03  2.0816289229035568e-03  2.0775948554631555e-03  2.0727005115331251e-03  2.0665548890588525e-03  2.0585466594428446e-03  2.0478307260854848e-03  2.0333242404728829e-03  2.0139508365239756e-03  1.9886087057460447e-03  1.9588260348166078e-03  1.9230696018167487e-03  1.9140057773465919e-03  1.9033701424626243e-03  1.8949297305069219e-03  1.9123785325198630e-03  1.9222707722296724e-03  1.9339454887504046e-03  1.9477241698830096e-03  1.9675673058407056e-03  1.9966426660168938e-03  2.0433865910273975e-03  2.0960581448886684e-03  2.2234269492832953e-03  2.0511770988315163e-03  3.1024594149579414e-03  -8.0675314044003927e-03  5.3800006715042890e-03  2.8237956982987374e-02  -1.6375841437121644e-01  1.8238064084535498e-02  -6.5742006164159900e-03  2.8204045193591328e-04  -8.3029120633925377e-04  -2.5450760886399477e-04  -2.3212369957900338e-04  -1.3242027942492811e-04  -9.1568948544551527e-05  -5.8868558256065926e-05  -3.9049404471424457e-05  -2.5530191337753111e-05  -1.6682700613570273e-05  -1.0742380625339955e-05  -6.7237811158921393e-06  -3.9049865648363805e-06  -1.7899927020955534e-06  1.2621774483536092e-22  </DataArray> 
</PointData> 
</Piece>
</UnstructuredGrid>
</VTKFile>