<?xml version="1.0"?>
<VTKFile type="UnstructuredGrid"  version="0.1"  >
<UnstructuredGrid>
<Piece  NumberOfPoints="101" NumberOfCells="100">
<Points>
<DataArray  type="Float64"  NumberOfComponents="3"  format="ascii">0 0 0  1e-07 0 0  2e-07 0 0  3e-07 0 0  4e-07 0 0  5e-07 0 0  6.000000000000001e-07 0 0  7.000000000000001e-07 0 0  8.000000000000001e-07 0 0  9.000000000000001e-07 0 0  1e-06 0 0  1.1e-06 0 0  1.2e-06 0 0  1.3e-06 0 0  1.4e-06 0 0  1.5e-06 0 0  1.6e-06 0 0  1.7e-06 0 0  1.8e-06 0 0  1.9e-06 0 0  2e-06 0 0  2.1e-06 0 0  2.2e-06 0 0  2.3e-06 0 0  2.4e-06 0 0  2.5e-06 0 0  2.600000000000001e-06 0 0  2.7e-06 0 0  2.8e-06 0 0  2.9e-06 0 0  3e-06 0 0  3.1e-06 0 0  3.2e-06 0 0  3.300000000000001e-06 0 0  3.4e-06 0 0  3.5e-06 0 0  3.6e-06 0 0  3.700000000000001e-06 0 0  3.8e-06 0 0  3.900000000000001e-06 0 0  4e-06 0 0  4.100000000000001e-06 0 0  4.2e-06 0 0  4.3e-06 0 0  4.4e-06 0 0  4.5e-06 0 0  4.6e-06 0 0  4.700000000000001e-06 0 0  4.800000000000001e-06 0 0  4.900000000000001e-06 0 0  5e-06 0 0  5.1e-06 0 0  5.200000000000001e-06 0 0  5.300000000000001e-06 0 0  5.4e-06 0 0  5.500000000000001e-06 0 0  5.600000000000001e-06 0 0  5.7e-06 0 0  5.8e-06 0 0  5.9e-06 0 0  6e-06 0 0  6.100000000000001e-06 0 0  6.2e-06 0 0  6.300000000000001e-06 0 0  6.400000000000001e-06 0 0  6.5e-06 0 0  6.600000000000001e-06 0 0  6.7e-06 0 0  6.8e-06 0 0  6.900000000000001e-06 0 0  7.000000000000001e-06 0 0  7.1e-06 0 0  7.200000000000001e-06 0 0  7.3e-06 0 0  7.400000000000001e-06 0 0  7.5e-06 0 0  7.6e-06 0 0  7.700000000000001e-06 0 0  7.800000000000002e-06 0 0  7.900000000000001e-06 0 0  8e-06 0 0  8.1e-06 0 0  8.200000000000001e-06 0 0  8.300000000000002e-06 0 0  8.400000000000001e-06 0 0  8.5e-06 0 0  8.600000000000001e-06 0 0  8.700000000000001e-06 0 0  8.8e-06 0 0  8.900000000000001e-06 0 0  9e-06 0 0  9.100000000000001e-06 0 0  9.2e-06 0 0  9.300000000000001e-06 0 0  9.400000000000001e-06 0 0  9.500000000000001e-06 0 0  9.600000000000001e-06 0 0  9.7e-06 0 0  9.800000000000001e-06 0 0  9.9e-06 0 0  1e-05 0 0  </DataArray>
</Points>
<Cells>
<DataArray  type="UInt32"  Name="connectivity"  format="ascii">0 1  1 2  2 3  3 4  4 5  5 6  6 7  7 8  8 9  9 10  10 11  11 12  12 13  13 14  14 15  15 16  16 17  17 18  18 19  19 20  20 21  21 22  22 23  23 24  24 25  25 26  26 27  27 28  28 29  29 30  30 31  31 32  32 33  33 34  34 35  35 36  36 37  37 38  38 39  39 40  40 41  41 42  42 43  43 44  44 45  45 46  46 47  47 48  48 49  49 50  50 51  51 52  52 53  53 54  54 55  55 56  56 57  57 58  58 59  59 60  60 61  61 62  62 63  63 64  64 65  65 66  66 67  67 68  68 69  69 70  70 71  71 72  72 73  73 74  74 75  75 76  76 77  77 78  78 79  79 80  80 81  81 82  82 83  83 84  84 85  85 86  86 87  87 88  88 89  89 90  90 91  91 92  92 93  93 94  94 95  95 96  96 97  97 98  98 99  99 100  </DataArray>
<DataArray  type="UInt32"  Name="offsets"  format="ascii">2 4 6 8 10 12 14 16 18 20 22 24 26 28 30 32 34 36 38 40 42 44 46 48 50 52 54 56 58 60 62 64 66 68 70 72 74 76 78 80 82 84 86 88 90 92 94 96 98 100 102 104 106 108 110 112 114 116 118 120 122 124 126 128 130 132 134 136 138 140 142 144 146 148 150 152 154 156 158 160 162 164 166 168 170 172 174 176 178 180 182 184 186 188 190 192 194 196 198 200 </DataArray>
<DataArray  type="UInt8"  Name="types"  format="ascii">3 3 3 3 3 3 3 3 3 3 3 3 3 3 3 3 3 3 3 3 3 3 3 3 3 3 3 3 3 3 3 3 3 3 3 3 3 3 3 3 3 3 3 3 3 3 3 3 3 3 3 3 3 3 3 3 3 3 3 3 3 3 3 3 3 3 3 3 3 3 3 3 3 3 3 3 3 3 3 3 3 3 3 3 3 3 3 3 3 3 3 3 3 3 3 3 3 3 3 3 </DataArray>
</Cells>
<PointData  Scalars="f_5257"> 
<DataArray  type="Float64"  Name="f_5257"  format="ascii">-3.1554436208840455e-23  3.2788401019047959e-07  6.4749914229737379e-07  9.5144185233234354e-07  1.2337776385772863e-06  1.4903655384696345e-06  1.7188936100331572e-06  1.9187013847264200e-06  2.0904754696433232e-06  2.2358968906928691e-06  2.3572975030759787e-06  2.4573605706181192e-06  2.5388818103897201e-06  2.6045937626588778e-06  2.6570480473325757e-06  2.6985458922045141e-06  2.7311060317455774e-06  2.7564595771757369e-06  2.7760628995122129e-06  2.7911213615462483e-06  2.8026185198080051e-06  2.8113469983370400e-06  2.8179385309950934e-06  2.8228916669262857e-06  2.8265963618571381e-06  2.8293551806232896e-06  2.8314011619373258e-06  2.8329125899386822e-06  2.8340250167088090e-06  2.8348409161820190e-06  2.8354373458595011e-06  2.8358719652091118e-06  2.8361877202377647e-06  2.8364164601394014e-06  2.8365817089274157e-06  2.8367007752792361e-06  2.8367863487836822e-06  2.8368477008194742e-06  2.8368915832904573e-06  2.8369228979808555e-06  2.8369451928130220e-06  2.8369610281922271e-06  2.8369722463314639e-06  2.8369801684415462e-06  2.8369857384930039e-06  2.8369896275225116e-06  2.8369923088501752e-06  2.8369941118365238e-06  2.8369952597327309e-06  2.8369958955979156e-06  2.8369960990423068e-06  2.8369958955979173e-06  2.8369952597327330e-06  2.8369941118365238e-06  2.8369923088501752e-06  2.8369896275225095e-06  2.8369857384929988e-06  2.8369801684415424e-06  2.8369722463314597e-06  2.8369610281922174e-06  2.8369451928130135e-06  2.8369228979808445e-06  2.8368915832904480e-06  2.8368477008194653e-06  2.8367863487836737e-06  2.8367007752792302e-06  2.8365817089274085e-06  2.8364164601393942e-06  2.8361877202377600e-06  2.8358719652091101e-06  2.8354373458594981e-06  2.8348409161820199e-06  2.8340250167088069e-06  2.8329125899386826e-06  2.8314011619373258e-06  2.8293551806232892e-06  2.8265963618571410e-06  2.8228916669262866e-06  2.8179385309950972e-06  2.8113469983370430e-06  2.8026185198080102e-06  2.7911213615462534e-06  2.7760628995122175e-06  2.7564595771757416e-06  2.7311060317455829e-06  2.6985458922045183e-06  2.6570480473325803e-06  2.6045937626588811e-06  2.5388818103897252e-06  2.4573605706181222e-06  2.3572975030759842e-06  2.2358968906928717e-06  2.0904754696433266e-06  1.9187013847264230e-06  1.7188936100331555e-06  1.4903655384696364e-06  1.2337776385772855e-06  9.5144185233234523e-07  6.4749914229737337e-07  3.2788401019048208e-07  3.1554436208840231e-23  </DataArray> 
</PointData> 
</Piece>
</UnstructuredGrid>
</VTKFile>