<?xml version="1.0"?>
<VTKFile type="UnstructuredGrid"  version="0.1"  >
<UnstructuredGrid>
<Piece  NumberOfPoints="101" NumberOfCells="100">
<Points>
<DataArray  type="Float64"  NumberOfComponents="3"  format="ascii">0 0 0  1e-07 0 0  2e-07 0 0  3e-07 0 0  4e-07 0 0  5e-07 0 0  6.000000000000001e-07 0 0  7.000000000000001e-07 0 0  8.000000000000001e-07 0 0  9.000000000000001e-07 0 0  1e-06 0 0  1.1e-06 0 0  1.2e-06 0 0  1.3e-06 0 0  1.4e-06 0 0  1.5e-06 0 0  1.6e-06 0 0  1.7e-06 0 0  1.8e-06 0 0  1.9e-06 0 0  2e-06 0 0  2.1e-06 0 0  2.2e-06 0 0  2.3e-06 0 0  2.4e-06 0 0  2.5e-06 0 0  2.600000000000001e-06 0 0  2.7e-06 0 0  2.8e-06 0 0  2.9e-06 0 0  3e-06 0 0  3.1e-06 0 0  3.2e-06 0 0  3.300000000000001e-06 0 0  3.4e-06 0 0  3.5e-06 0 0  3.6e-06 0 0  3.700000000000001e-06 0 0  3.8e-06 0 0  3.900000000000001e-06 0 0  4e-06 0 0  4.100000000000001e-06 0 0  4.2e-06 0 0  4.3e-06 0 0  4.4e-06 0 0  4.5e-06 0 0  4.6e-06 0 0  4.700000000000001e-06 0 0  4.800000000000001e-06 0 0  4.900000000000001e-06 0 0  5e-06 0 0  5.1e-06 0 0  5.200000000000001e-06 0 0  5.300000000000001e-06 0 0  5.4e-06 0 0  5.500000000000001e-06 0 0  5.600000000000001e-06 0 0  5.7e-06 0 0  5.8e-06 0 0  5.9e-06 0 0  6e-06 0 0  6.100000000000001e-06 0 0  6.2e-06 0 0  6.300000000000001e-06 0 0  6.400000000000001e-06 0 0  6.5e-06 0 0  6.600000000000001e-06 0 0  6.7e-06 0 0  6.8e-06 0 0  6.900000000000001e-06 0 0  7.000000000000001e-06 0 0  7.1e-06 0 0  7.200000000000001e-06 0 0  7.3e-06 0 0  7.400000000000001e-06 0 0  7.5e-06 0 0  7.6e-06 0 0  7.700000000000001e-06 0 0  7.800000000000002e-06 0 0  7.900000000000001e-06 0 0  8e-06 0 0  8.1e-06 0 0  8.200000000000001e-06 0 0  8.300000000000002e-06 0 0  8.400000000000001e-06 0 0  8.5e-06 0 0  8.600000000000001e-06 0 0  8.700000000000001e-06 0 0  8.8e-06 0 0  8.900000000000001e-06 0 0  9e-06 0 0  9.100000000000001e-06 0 0  9.2e-06 0 0  9.300000000000001e-06 0 0  9.400000000000001e-06 0 0  9.500000000000001e-06 0 0  9.600000000000001e-06 0 0  9.7e-06 0 0  9.800000000000001e-06 0 0  9.9e-06 0 0  1e-05 0 0  </DataArray>
</Points>
<Cells>
<DataArray  type="UInt32"  Name="connectivity"  format="ascii">0 1  1 2  2 3  3 4  4 5  5 6  6 7  7 8  8 9  9 10  10 11  11 12  12 13  13 14  14 15  15 16  16 17  17 18  18 19  19 20  20 21  21 22  22 23  23 24  24 25  25 26  26 27  27 28  28 29  29 30  30 31  31 32  32 33  33 34  34 35  35 36  36 37  37 38  38 39  39 40  40 41  41 42  42 43  43 44  44 45  45 46  46 47  47 48  48 49  49 50  50 51  51 52  52 53  53 54  54 55  55 56  56 57  57 58  58 59  59 60  60 61  61 62  62 63  63 64  64 65  65 66  66 67  67 68  68 69  69 70  70 71  71 72  72 73  73 74  74 75  75 76  76 77  77 78  78 79  79 80  80 81  81 82  82 83  83 84  84 85  85 86  86 87  87 88  88 89  89 90  90 91  91 92  92 93  93 94  94 95  95 96  96 97  97 98  98 99  99 100  </DataArray>
<DataArray  type="UInt32"  Name="offsets"  format="ascii">2 4 6 8 10 12 14 16 18 20 22 24 26 28 30 32 34 36 38 40 42 44 46 48 50 52 54 56 58 60 62 64 66 68 70 72 74 76 78 80 82 84 86 88 90 92 94 96 98 100 102 104 106 108 110 112 114 116 118 120 122 124 126 128 130 132 134 136 138 140 142 144 146 148 150 152 154 156 158 160 162 164 166 168 170 172 174 176 178 180 182 184 186 188 190 192 194 196 198 200 </DataArray>
<DataArray  type="UInt8"  Name="types"  format="ascii">3 3 3 3 3 3 3 3 3 3 3 3 3 3 3 3 3 3 3 3 3 3 3 3 3 3 3 3 3 3 3 3 3 3 3 3 3 3 3 3 3 3 3 3 3 3 3 3 3 3 3 3 3 3 3 3 3 3 3 3 3 3 3 3 3 3 3 3 3 3 3 3 3 3 3 3 3 3 3 3 3 3 3 3 3 3 3 3 3 3 3 3 3 3 3 3 3 3 3 3 </DataArray>
</Cells>
<PointData  Scalars="f_6522"> 
<DataArray  type="Float64"  Name="f_6522"  format="ascii">-2.2958874039497790e-34  2.6495650605299123e-18  5.2866229771795763e-18  7.8988504251176366e-18  1.0474287038752863e-17  1.3001505367681532e-17  1.5469767481331601e-17  1.7869164541739496e-17  2.0190736274851936e-17  2.2426567976900995e-17  2.4569863460729184e-17  2.6614993142591552e-17  2.8557517258266603e-17  3.0394184945654784e-17  3.2122910610544098e-17  3.3742729579039812e-17  3.5253735516446822e-17  3.6657002446813406e-17  3.7954494435138451e-17  3.9148966096919175e-17  4.0243857084403217e-17  4.1243183577432683e-17  4.2151429594568364e-17  4.2973440655119605e-17  4.3714321983893920e-17  4.4379343077165047e-17  4.4973850058950334e-17  4.5503186867948809e-17  4.5972625941945995e-17  4.6387308720011512e-17  4.6752195972451475e-17  4.7072027700413717e-17  4.7351292124767171e-17  4.7594203108414176e-17  4.7804685226472607e-17  4.7986365612002542e-17  4.8142571657070966e-17  4.8276333634996831e-17  4.8390391324140753e-17  4.8487203750981766e-17  4.8568961224969692e-17  4.8637598904615395e-17  4.8694811208867897e-17  4.8742066466041363e-17  4.8780621271121104e-17  4.8811534098631678e-17  4.8835677790547305e-17  4.8853750605784264e-17  4.8866285579072022e-17  4.8873657992427660e-17  4.8876090812491104e-17  4.8873657992427624e-17  4.8866285579072003e-17  4.8853750605784197e-17  4.8835677790547237e-17  4.8811534098631542e-17  4.8780621271120937e-17  4.8742066466041147e-17  4.8694811208867663e-17  4.8637598904615124e-17  4.8568961224969353e-17  4.8487203750981409e-17  4.8390391324140377e-17  4.8276333634996467e-17  4.8142571657070633e-17  4.7986365612002240e-17  4.7804685226472261e-17  4.7594203108413856e-17  4.7351292124766900e-17  4.7072027700413501e-17  4.6752195972451309e-17  4.6387308720011389e-17  4.5972625941945878e-17  4.5503186867948754e-17  4.4973850058950260e-17  4.4379343077165016e-17  4.3714321983893907e-17  4.2973440655119642e-17  4.2151429594568413e-17  4.1243183577432757e-17  4.0243857084403340e-17  3.9148966096919292e-17  3.7954494435138568e-17  3.6657002446813535e-17  3.5253735516446964e-17  3.3742729579039985e-17  3.2122910610544227e-17  3.0394184945654920e-17  2.8557517258266739e-17  2.6614993142591682e-17  2.4569863460729314e-17  2.2426567976901103e-17  2.0190736274852044e-17  1.7869164541739583e-17  1.5469767481331644e-17  1.3001505367681602e-17  1.0474287038752892e-17  7.8988504251176812e-18  5.2866229771795948e-18  2.6495650605299431e-18  4.5917748078995255e-34  </DataArray> 
</PointData> 
</Piece>
</UnstructuredGrid>
</VTKFile>