<?xml version="1.0"?>
<VTKFile type="UnstructuredGrid"  version="0.1"  >
<UnstructuredGrid>
<Piece  NumberOfPoints="101" NumberOfCells="100">
<Points>
<DataArray  type="Float64"  NumberOfComponents="3"  format="ascii">0 0 0  1e-07 0 0  2e-07 0 0  3e-07 0 0  4e-07 0 0  5e-07 0 0  6.000000000000001e-07 0 0  7.000000000000001e-07 0 0  8.000000000000001e-07 0 0  9.000000000000001e-07 0 0  1e-06 0 0  1.1e-06 0 0  1.2e-06 0 0  1.3e-06 0 0  1.4e-06 0 0  1.5e-06 0 0  1.6e-06 0 0  1.7e-06 0 0  1.8e-06 0 0  1.9e-06 0 0  2e-06 0 0  2.1e-06 0 0  2.2e-06 0 0  2.3e-06 0 0  2.4e-06 0 0  2.5e-06 0 0  2.600000000000001e-06 0 0  2.7e-06 0 0  2.8e-06 0 0  2.9e-06 0 0  3e-06 0 0  3.1e-06 0 0  3.2e-06 0 0  3.300000000000001e-06 0 0  3.4e-06 0 0  3.5e-06 0 0  3.6e-06 0 0  3.700000000000001e-06 0 0  3.8e-06 0 0  3.900000000000001e-06 0 0  4e-06 0 0  4.100000000000001e-06 0 0  4.2e-06 0 0  4.3e-06 0 0  4.4e-06 0 0  4.5e-06 0 0  4.6e-06 0 0  4.700000000000001e-06 0 0  4.800000000000001e-06 0 0  4.900000000000001e-06 0 0  5e-06 0 0  5.1e-06 0 0  5.200000000000001e-06 0 0  5.300000000000001e-06 0 0  5.4e-06 0 0  5.500000000000001e-06 0 0  5.600000000000001e-06 0 0  5.7e-06 0 0  5.8e-06 0 0  5.9e-06 0 0  6e-06 0 0  6.100000000000001e-06 0 0  6.2e-06 0 0  6.300000000000001e-06 0 0  6.400000000000001e-06 0 0  6.5e-06 0 0  6.600000000000001e-06 0 0  6.7e-06 0 0  6.8e-06 0 0  6.900000000000001e-06 0 0  7.000000000000001e-06 0 0  7.1e-06 0 0  7.200000000000001e-06 0 0  7.3e-06 0 0  7.400000000000001e-06 0 0  7.5e-06 0 0  7.6e-06 0 0  7.700000000000001e-06 0 0  7.800000000000002e-06 0 0  7.900000000000001e-06 0 0  8e-06 0 0  8.1e-06 0 0  8.200000000000001e-06 0 0  8.300000000000002e-06 0 0  8.400000000000001e-06 0 0  8.5e-06 0 0  8.600000000000001e-06 0 0  8.700000000000001e-06 0 0  8.8e-06 0 0  8.900000000000001e-06 0 0  9e-06 0 0  9.100000000000001e-06 0 0  9.2e-06 0 0  9.300000000000001e-06 0 0  9.400000000000001e-06 0 0  9.500000000000001e-06 0 0  9.600000000000001e-06 0 0  9.7e-06 0 0  9.800000000000001e-06 0 0  9.9e-06 0 0  1e-05 0 0  </DataArray>
</Points>
<Cells>
<DataArray  type="UInt32"  Name="connectivity"  format="ascii">0 1  1 2  2 3  3 4  4 5  5 6  6 7  7 8  8 9  9 10  10 11  11 12  12 13  13 14  14 15  15 16  16 17  17 18  18 19  19 20  20 21  21 22  22 23  23 24  24 25  25 26  26 27  27 28  28 29  29 30  30 31  31 32  32 33  33 34  34 35  35 36  36 37  37 38  38 39  39 40  40 41  41 42  42 43  43 44  44 45  45 46  46 47  47 48  48 49  49 50  50 51  51 52  52 53  53 54  54 55  55 56  56 57  57 58  58 59  59 60  60 61  61 62  62 63  63 64  64 65  65 66  66 67  67 68  68 69  69 70  70 71  71 72  72 73  73 74  74 75  75 76  76 77  77 78  78 79  79 80  80 81  81 82  82 83  83 84  84 85  85 86  86 87  87 88  88 89  89 90  90 91  91 92  92 93  93 94  94 95  95 96  96 97  97 98  98 99  99 100  </DataArray>
<DataArray  type="UInt32"  Name="offsets"  format="ascii">2 4 6 8 10 12 14 16 18 20 22 24 26 28 30 32 34 36 38 40 42 44 46 48 50 52 54 56 58 60 62 64 66 68 70 72 74 76 78 80 82 84 86 88 90 92 94 96 98 100 102 104 106 108 110 112 114 116 118 120 122 124 126 128 130 132 134 136 138 140 142 144 146 148 150 152 154 156 158 160 162 164 166 168 170 172 174 176 178 180 182 184 186 188 190 192 194 196 198 200 </DataArray>
<DataArray  type="UInt8"  Name="types"  format="ascii">3 3 3 3 3 3 3 3 3 3 3 3 3 3 3 3 3 3 3 3 3 3 3 3 3 3 3 3 3 3 3 3 3 3 3 3 3 3 3 3 3 3 3 3 3 3 3 3 3 3 3 3 3 3 3 3 3 3 3 3 3 3 3 3 3 3 3 3 3 3 3 3 3 3 3 3 3 3 3 3 3 3 3 3 3 3 3 3 3 3 3 3 3 3 3 3 3 3 3 3 </DataArray>
</Cells>
<PointData  Scalars="f_2562"> 
<DataArray  type="Float64"  Name="f_2562"  format="ascii">3.8774091213423153e-19  1.8325544701515298e-03  1.7541278171128228e-03  1.9124864364309868e-03  1.9679680918113802e-03  2.0160322527242244e-03  2.0443749434030252e-03  2.0636689578594522e-03  2.0760564201623070e-03  2.0841987388924956e-03  2.0894997233377407e-03  2.0929643853595946e-03  2.0952252415671960e-03  2.0967015231356796e-03  2.0976652401826666e-03  2.0982944243035173e-03  2.0987051828025871e-03  2.0989733486525028e-03  2.0991484208375401e-03  2.0992627171506030e-03  2.0993373356929905e-03  2.0993860505626218e-03  2.0994178541598914e-03  2.0994386172023087e-03  2.0994521723959425e-03  2.0994610219313191e-03  2.0994667993682447e-03  2.0994705711795511e-03  2.0994730336141377e-03  2.0994746412195029e-03  2.0994756907478846e-03  2.0994763759345763e-03  2.0994768232600529e-03  2.0994771152973344e-03  2.0994773059543775e-03  2.0994774304250808e-03  2.0994775116858324e-03  2.0994775647367736e-03  2.0994775993707199e-03  2.0994776219808477e-03  2.0994776367408230e-03  2.0994776463752231e-03  2.0994776526624963e-03  2.0994776567632221e-03  2.0994776594343689e-03  2.0994776611690078e-03  2.0994776622873406e-03  2.0994776629958047e-03  2.0994776634251774e-03  2.0994776636547173e-03  2.0994776637267959e-03  2.0994776636547169e-03  2.0994776634251778e-03  2.0994776629958039e-03  2.0994776622873411e-03  2.0994776611690065e-03  2.0994776594343676e-03  2.0994776567632213e-03  2.0994776526624946e-03  2.0994776463752218e-03  2.0994776367408187e-03  2.0994776219808464e-03  2.0994775993707169e-03  2.0994775647367697e-03  2.0994775116858276e-03  2.0994774304250782e-03  2.0994773059543731e-03  2.0994771152973309e-03  2.0994768232600477e-03  2.0994763759345728e-03  2.0994756907478799e-03  2.0994746412194986e-03  2.0994730336141337e-03  2.0994705711795442e-03  2.0994667993682399e-03  2.0994610219313144e-03  2.0994521723959360e-03  2.0994386172023035e-03  2.0994178541598853e-03  2.0993860505626161e-03  2.0993373356929853e-03  2.0992627171505973e-03  2.0991484208375344e-03  2.0989733486524976e-03  2.0987051828025810e-03  2.0982944243035113e-03  2.0976652401826614e-03  2.0967015231356744e-03  2.0952252415671899e-03  2.0929643853595890e-03  2.0894997233377368e-03  2.0841987388924908e-03  2.0760564201623027e-03  2.0636689578594487e-03  2.0443749434030231e-03  2.0160322527242210e-03  1.9679680918113771e-03  1.9124864364309859e-03  1.7541278171128206e-03  1.8325544701515346e-03  -2.5849394142281917e-19  </DataArray> 
</PointData> 
</Piece>
</UnstructuredGrid>
</VTKFile>