<?xml version="1.0"?>
<VTKFile type="UnstructuredGrid"  version="0.1"  >
<UnstructuredGrid>
<Piece  NumberOfPoints="101" NumberOfCells="100">
<Points>
<DataArray  type="Float64"  NumberOfComponents="3"  format="ascii">0 0 0  1e-07 0 0  2e-07 0 0  3e-07 0 0  4e-07 0 0  5e-07 0 0  6.000000000000001e-07 0 0  7.000000000000001e-07 0 0  8.000000000000001e-07 0 0  9.000000000000001e-07 0 0  1e-06 0 0  1.1e-06 0 0  1.2e-06 0 0  1.3e-06 0 0  1.4e-06 0 0  1.5e-06 0 0  1.6e-06 0 0  1.7e-06 0 0  1.8e-06 0 0  1.9e-06 0 0  2e-06 0 0  2.1e-06 0 0  2.2e-06 0 0  2.3e-06 0 0  2.4e-06 0 0  2.5e-06 0 0  2.600000000000001e-06 0 0  2.7e-06 0 0  2.8e-06 0 0  2.9e-06 0 0  3e-06 0 0  3.1e-06 0 0  3.2e-06 0 0  3.300000000000001e-06 0 0  3.4e-06 0 0  3.5e-06 0 0  3.6e-06 0 0  3.700000000000001e-06 0 0  3.8e-06 0 0  3.900000000000001e-06 0 0  4e-06 0 0  4.100000000000001e-06 0 0  4.2e-06 0 0  4.3e-06 0 0  4.4e-06 0 0  4.5e-06 0 0  4.6e-06 0 0  4.700000000000001e-06 0 0  4.800000000000001e-06 0 0  4.900000000000001e-06 0 0  5e-06 0 0  5.1e-06 0 0  5.200000000000001e-06 0 0  5.300000000000001e-06 0 0  5.4e-06 0 0  5.500000000000001e-06 0 0  5.600000000000001e-06 0 0  5.7e-06 0 0  5.8e-06 0 0  5.9e-06 0 0  6e-06 0 0  6.100000000000001e-06 0 0  6.2e-06 0 0  6.300000000000001e-06 0 0  6.400000000000001e-06 0 0  6.5e-06 0 0  6.600000000000001e-06 0 0  6.7e-06 0 0  6.8e-06 0 0  6.900000000000001e-06 0 0  7.000000000000001e-06 0 0  7.1e-06 0 0  7.200000000000001e-06 0 0  7.3e-06 0 0  7.400000000000001e-06 0 0  7.5e-06 0 0  7.6e-06 0 0  7.700000000000001e-06 0 0  7.800000000000002e-06 0 0  7.900000000000001e-06 0 0  8e-06 0 0  8.1e-06 0 0  8.200000000000001e-06 0 0  8.300000000000002e-06 0 0  8.400000000000001e-06 0 0  8.5e-06 0 0  8.600000000000001e-06 0 0  8.700000000000001e-06 0 0  8.8e-06 0 0  8.900000000000001e-06 0 0  9e-06 0 0  9.100000000000001e-06 0 0  9.2e-06 0 0  9.300000000000001e-06 0 0  9.400000000000001e-06 0 0  9.500000000000001e-06 0 0  9.600000000000001e-06 0 0  9.7e-06 0 0  9.800000000000001e-06 0 0  9.9e-06 0 0  1e-05 0 0  </DataArray>
</Points>
<Cells>
<DataArray  type="UInt32"  Name="connectivity"  format="ascii">0 1  1 2  2 3  3 4  4 5  5 6  6 7  7 8  8 9  9 10  10 11  11 12  12 13  13 14  14 15  15 16  16 17  17 18  18 19  19 20  20 21  21 22  22 23  23 24  24 25  25 26  26 27  27 28  28 29  29 30  30 31  31 32  32 33  33 34  34 35  35 36  36 37  37 38  38 39  39 40  40 41  41 42  42 43  43 44  44 45  45 46  46 47  47 48  48 49  49 50  50 51  51 52  52 53  53 54  54 55  55 56  56 57  57 58  58 59  59 60  60 61  61 62  62 63  63 64  64 65  65 66  66 67  67 68  68 69  69 70  70 71  71 72  72 73  73 74  74 75  75 76  76 77  77 78  78 79  79 80  80 81  81 82  82 83  83 84  84 85  85 86  86 87  87 88  88 89  89 90  90 91  91 92  92 93  93 94  94 95  95 96  96 97  97 98  98 99  99 100  </DataArray>
<DataArray  type="UInt32"  Name="offsets"  format="ascii">2 4 6 8 10 12 14 16 18 20 22 24 26 28 30 32 34 36 38 40 42 44 46 48 50 52 54 56 58 60 62 64 66 68 70 72 74 76 78 80 82 84 86 88 90 92 94 96 98 100 102 104 106 108 110 112 114 116 118 120 122 124 126 128 130 132 134 136 138 140 142 144 146 148 150 152 154 156 158 160 162 164 166 168 170 172 174 176 178 180 182 184 186 188 190 192 194 196 198 200 </DataArray>
<DataArray  type="UInt8"  Name="types"  format="ascii">3 3 3 3 3 3 3 3 3 3 3 3 3 3 3 3 3 3 3 3 3 3 3 3 3 3 3 3 3 3 3 3 3 3 3 3 3 3 3 3 3 3 3 3 3 3 3 3 3 3 3 3 3 3 3 3 3 3 3 3 3 3 3 3 3 3 3 3 3 3 3 3 3 3 3 3 3 3 3 3 3 3 3 3 3 3 3 3 3 3 3 3 3 3 3 3 3 3 3 3 </DataArray>
</Cells>
<PointData  Scalars="f_2342"> 
<DataArray  type="Float64"  Name="f_2342"  format="ascii">-2.5849394142282100e-19  1.8325544701515359e-03  1.7541278171128345e-03  1.9124864364310015e-03  1.9679680918114010e-03  2.0160322527242487e-03  2.0443749434030539e-03  2.0636689578594851e-03  2.0760564201623430e-03  2.0841987388925337e-03  2.0894997233377815e-03  2.0929643853596354e-03  2.0952252415672367e-03  2.0967015231357217e-03  2.0976652401827087e-03  2.0982944243035564e-03  2.0987051828026261e-03  2.0989733486525414e-03  2.0991484208375782e-03  2.0992627171506368e-03  2.0993373356930226e-03  2.0993860505626521e-03  2.0994178541599196e-03  2.0994386172023343e-03  2.0994521723959655e-03  2.0994610219313404e-03  2.0994667993682638e-03  2.0994705711795667e-03  2.0994730336141528e-03  2.0994746412195163e-03  2.0994756907478950e-03  2.0994763759345863e-03  2.0994768232600602e-03  2.0994771152973405e-03  2.0994773059543814e-03  2.0994774304250851e-03  2.0994775116858328e-03  2.0994775647367736e-03  2.0994775993707186e-03  2.0994776219808442e-03  2.0994776367408178e-03  2.0994776463752170e-03  2.0994776526624881e-03  2.0994776567632122e-03  2.0994776594343554e-03  2.0994776611689930e-03  2.0994776622873220e-03  2.0994776629957835e-03  2.0994776634251518e-03  2.0994776636546874e-03  2.0994776637267600e-03  2.0994776636546770e-03  2.0994776634251288e-03  2.0994776629957496e-03  2.0994776622872782e-03  2.0994776611689345e-03  2.0994776594342856e-03  2.0994776567631285e-03  2.0994776526623896e-03  2.0994776463751029e-03  2.0994776367406864e-03  2.0994776219806972e-03  2.0994775993705517e-03  2.0994775647365867e-03  2.0994775116856264e-03  2.0994774304248561e-03  2.0994773059541299e-03  2.0994771152970655e-03  2.0994768232597619e-03  2.0994763759342632e-03  2.0994756907475464e-03  2.0994746412191434e-03  2.0994730336137543e-03  2.0994705711791456e-03  2.0994667993678167e-03  2.0994610219308707e-03  2.0994521723954758e-03  2.0994386172018247e-03  2.0994178541593931e-03  2.0993860505621104e-03  2.0993373356924688e-03  2.0992627171500756e-03  2.0991484208370079e-03  2.0989733486519702e-03  2.0987051828020584e-03  2.0982944243029952e-03  2.0976652401821566e-03  2.0967015231351839e-03  2.0952252415667194e-03  2.0929643853591414e-03  2.0894997233373157e-03  2.0841987388921001e-03  2.0760564201619462e-03  2.0636689578591295e-03  2.0443749434027416e-03  2.0160322527239846e-03  1.9679680918111842e-03  1.9124864364308408e-03  1.7541278171127196e-03  1.8325544701514890e-03  0.0000000000000000e+00  </DataArray> 
</PointData> 
</Piece>
</UnstructuredGrid>
</VTKFile>