<?xml version="1.0"?>
<VTKFile type="UnstructuredGrid"  version="0.1"  >
<UnstructuredGrid>
<Piece  NumberOfPoints="101" NumberOfCells="100">
<Points>
<DataArray  type="Float64"  NumberOfComponents="3"  format="ascii">0 0 0  1e-07 0 0  2e-07 0 0  3e-07 0 0  4e-07 0 0  5e-07 0 0  6.000000000000001e-07 0 0  7.000000000000001e-07 0 0  8.000000000000001e-07 0 0  9.000000000000001e-07 0 0  1e-06 0 0  1.1e-06 0 0  1.2e-06 0 0  1.3e-06 0 0  1.4e-06 0 0  1.5e-06 0 0  1.6e-06 0 0  1.7e-06 0 0  1.8e-06 0 0  1.9e-06 0 0  2e-06 0 0  2.1e-06 0 0  2.2e-06 0 0  2.3e-06 0 0  2.4e-06 0 0  2.5e-06 0 0  2.600000000000001e-06 0 0  2.7e-06 0 0  2.8e-06 0 0  2.9e-06 0 0  3e-06 0 0  3.1e-06 0 0  3.2e-06 0 0  3.300000000000001e-06 0 0  3.4e-06 0 0  3.5e-06 0 0  3.6e-06 0 0  3.700000000000001e-06 0 0  3.8e-06 0 0  3.900000000000001e-06 0 0  4e-06 0 0  4.100000000000001e-06 0 0  4.2e-06 0 0  4.3e-06 0 0  4.4e-06 0 0  4.5e-06 0 0  4.6e-06 0 0  4.700000000000001e-06 0 0  4.800000000000001e-06 0 0  4.900000000000001e-06 0 0  5e-06 0 0  5.1e-06 0 0  5.200000000000001e-06 0 0  5.300000000000001e-06 0 0  5.4e-06 0 0  5.500000000000001e-06 0 0  5.600000000000001e-06 0 0  5.7e-06 0 0  5.8e-06 0 0  5.9e-06 0 0  6e-06 0 0  6.100000000000001e-06 0 0  6.2e-06 0 0  6.300000000000001e-06 0 0  6.400000000000001e-06 0 0  6.5e-06 0 0  6.600000000000001e-06 0 0  6.7e-06 0 0  6.8e-06 0 0  6.900000000000001e-06 0 0  7.000000000000001e-06 0 0  7.1e-06 0 0  7.200000000000001e-06 0 0  7.3e-06 0 0  7.400000000000001e-06 0 0  7.5e-06 0 0  7.6e-06 0 0  7.700000000000001e-06 0 0  7.800000000000002e-06 0 0  7.900000000000001e-06 0 0  8e-06 0 0  8.1e-06 0 0  8.200000000000001e-06 0 0  8.300000000000002e-06 0 0  8.400000000000001e-06 0 0  8.5e-06 0 0  8.600000000000001e-06 0 0  8.700000000000001e-06 0 0  8.8e-06 0 0  8.900000000000001e-06 0 0  9e-06 0 0  9.100000000000001e-06 0 0  9.2e-06 0 0  9.300000000000001e-06 0 0  9.400000000000001e-06 0 0  9.500000000000001e-06 0 0  9.600000000000001e-06 0 0  9.7e-06 0 0  9.800000000000001e-06 0 0  9.9e-06 0 0  1e-05 0 0  </DataArray>
</Points>
<Cells>
<DataArray  type="UInt32"  Name="connectivity"  format="ascii">0 1  1 2  2 3  3 4  4 5  5 6  6 7  7 8  8 9  9 10  10 11  11 12  12 13  13 14  14 15  15 16  16 17  17 18  18 19  19 20  20 21  21 22  22 23  23 24  24 25  25 26  26 27  27 28  28 29  29 30  30 31  31 32  32 33  33 34  34 35  35 36  36 37  37 38  38 39  39 40  40 41  41 42  42 43  43 44  44 45  45 46  46 47  47 48  48 49  49 50  50 51  51 52  52 53  53 54  54 55  55 56  56 57  57 58  58 59  59 60  60 61  61 62  62 63  63 64  64 65  65 66  66 67  67 68  68 69  69 70  70 71  71 72  72 73  73 74  74 75  75 76  76 77  77 78  78 79  79 80  80 81  81 82  82 83  83 84  84 85  85 86  86 87  87 88  88 89  89 90  90 91  91 92  92 93  93 94  94 95  95 96  96 97  97 98  98 99  99 100  </DataArray>
<DataArray  type="UInt32"  Name="offsets"  format="ascii">2 4 6 8 10 12 14 16 18 20 22 24 26 28 30 32 34 36 38 40 42 44 46 48 50 52 54 56 58 60 62 64 66 68 70 72 74 76 78 80 82 84 86 88 90 92 94 96 98 100 102 104 106 108 110 112 114 116 118 120 122 124 126 128 130 132 134 136 138 140 142 144 146 148 150 152 154 156 158 160 162 164 166 168 170 172 174 176 178 180 182 184 186 188 190 192 194 196 198 200 </DataArray>
<DataArray  type="UInt8"  Name="types"  format="ascii">3 3 3 3 3 3 3 3 3 3 3 3 3 3 3 3 3 3 3 3 3 3 3 3 3 3 3 3 3 3 3 3 3 3 3 3 3 3 3 3 3 3 3 3 3 3 3 3 3 3 3 3 3 3 3 3 3 3 3 3 3 3 3 3 3 3 3 3 3 3 3 3 3 3 3 3 3 3 3 3 3 3 3 3 3 3 3 3 3 3 3 3 3 3 3 3 3 3 3 3 </DataArray>
</Cells>
<PointData  Scalars="f_1517"> 
<DataArray  type="Float64"  Name="f_1517"  format="ascii">2.5849394142282100e-19  1.8325547997689560e-03  1.7541285452978123e-03  1.9124874318075251e-03  1.9679693461250804e-03  2.0160336873904783e-03  2.0443764979498754e-03  2.0636705672970762e-03  2.0760580274435214e-03  2.0842002955242848e-03  2.0895011915013448e-03  2.0929657381208266e-03  2.0952264622941990e-03  2.0967026042275675e-03  2.0976661814366905e-03  2.0982952311616979e-03  2.0987058646642735e-03  2.0989739173758611e-03  2.0991488894958688e-03  2.0992630990644854e-03  2.0993376437273273e-03  2.0993862966577760e-03  2.0994180490564343e-03  2.0994387703164251e-03  2.0994522918050557e-03  2.0994611144347277e-03  2.0994668705941002e-03  2.0994706257159794e-03  2.0994730751484367e-03  2.0994746726743243e-03  2.0994757144074819e-03  2.0994763935572413e-03  2.0994768361750822e-03  2.0994771244863750e-03  2.0994773121178973e-03  2.0994774340352433e-03  2.0994775130272086e-03  2.0994775639363592e-03  2.0994775964185359e-03  2.0994776167421849e-03  2.0994776289609547e-03  2.0994776356770312e-03  2.0994776385371743e-03  2.0994776385539035e-03  2.0994776363121082e-03  2.0994776321002369e-03  2.0994776259914707e-03  2.0994776178912804e-03  2.0994776075618014e-03  2.0994775946296990e-03  2.0994775785814911e-03  2.0994775587487688e-03  2.0994775342845027e-03  2.0994775041309221e-03  2.0994774669788560e-03  2.0994774212179010e-03  2.0994773648761564e-03  2.0994772955472466e-03  2.0994772103008173e-03  2.0994771055697359e-03  2.0994769770025768e-03  2.0994768192619138e-03  2.0994766257360852e-03  2.0994763881113290e-03  2.0994760957187249e-03  2.0994757345195966e-03  2.0994752855150950e-03  2.0994747222458309e-03  2.0994740068649184e-03  2.0994730839894388e-03  2.0994718711118509e-03  2.0994702437079718e-03  2.0994680121950672e-03  2.0994648863936639e-03  2.0994604208545635e-03  2.0994539309069265e-03  2.0994443639162719e-03  2.0994301020210368e-03  2.0994086600197373e-03  2.0993762227820324e-03  2.0993269369673725e-03  2.0992518265553432e-03  2.0991371320949791e-03  2.0989617677953099e-03  2.0986934254204207e-03  2.0982826125893312e-03  2.0976534999939938e-03  2.0966899812576581e-03  2.0952140233047732e-03  2.0929536125413968e-03  2.0894895126702400e-03  2.0841892008198063e-03  2.0760476574104392e-03  2.0636610660318233e-03  2.0443680053888972e-03  2.0160263530531793e-03  1.9679632696015105e-03  1.9124828181167315e-03  1.7541252612623358e-03  1.8325533531666023e-03  2.5849394142281917e-19  </DataArray> 
</PointData> 
</Piece>
</UnstructuredGrid>
</VTKFile>