<?xml version="1.0"?>
<VTKFile type="UnstructuredGrid"  version="0.1"  >
<UnstructuredGrid>
<Piece  NumberOfPoints="101" NumberOfCells="100">
<Points>
<DataArray  type="Float64"  NumberOfComponents="3"  format="ascii">0 0 0  1e-07 0 0  2e-07 0 0  3e-07 0 0  4e-07 0 0  5e-07 0 0  6.000000000000001e-07 0 0  7.000000000000001e-07 0 0  8.000000000000001e-07 0 0  9.000000000000001e-07 0 0  1e-06 0 0  1.1e-06 0 0  1.2e-06 0 0  1.3e-06 0 0  1.4e-06 0 0  1.5e-06 0 0  1.6e-06 0 0  1.7e-06 0 0  1.8e-06 0 0  1.9e-06 0 0  2e-06 0 0  2.1e-06 0 0  2.2e-06 0 0  2.3e-06 0 0  2.4e-06 0 0  2.5e-06 0 0  2.600000000000001e-06 0 0  2.7e-06 0 0  2.8e-06 0 0  2.9e-06 0 0  3e-06 0 0  3.1e-06 0 0  3.2e-06 0 0  3.300000000000001e-06 0 0  3.4e-06 0 0  3.5e-06 0 0  3.6e-06 0 0  3.700000000000001e-06 0 0  3.8e-06 0 0  3.900000000000001e-06 0 0  4e-06 0 0  4.100000000000001e-06 0 0  4.2e-06 0 0  4.3e-06 0 0  4.4e-06 0 0  4.5e-06 0 0  4.6e-06 0 0  4.700000000000001e-06 0 0  4.800000000000001e-06 0 0  4.900000000000001e-06 0 0  5e-06 0 0  5.1e-06 0 0  5.200000000000001e-06 0 0  5.300000000000001e-06 0 0  5.4e-06 0 0  5.500000000000001e-06 0 0  5.600000000000001e-06 0 0  5.7e-06 0 0  5.8e-06 0 0  5.9e-06 0 0  6e-06 0 0  6.100000000000001e-06 0 0  6.2e-06 0 0  6.300000000000001e-06 0 0  6.400000000000001e-06 0 0  6.5e-06 0 0  6.600000000000001e-06 0 0  6.7e-06 0 0  6.8e-06 0 0  6.900000000000001e-06 0 0  7.000000000000001e-06 0 0  7.1e-06 0 0  7.200000000000001e-06 0 0  7.3e-06 0 0  7.400000000000001e-06 0 0  7.5e-06 0 0  7.6e-06 0 0  7.700000000000001e-06 0 0  7.800000000000002e-06 0 0  7.900000000000001e-06 0 0  8e-06 0 0  8.1e-06 0 0  8.200000000000001e-06 0 0  8.300000000000002e-06 0 0  8.400000000000001e-06 0 0  8.5e-06 0 0  8.600000000000001e-06 0 0  8.700000000000001e-06 0 0  8.8e-06 0 0  8.900000000000001e-06 0 0  9e-06 0 0  9.100000000000001e-06 0 0  9.2e-06 0 0  9.300000000000001e-06 0 0  9.400000000000001e-06 0 0  9.500000000000001e-06 0 0  9.600000000000001e-06 0 0  9.7e-06 0 0  9.800000000000001e-06 0 0  9.9e-06 0 0  1e-05 0 0  </DataArray>
</Points>
<Cells>
<DataArray  type="UInt32"  Name="connectivity"  format="ascii">0 1  1 2  2 3  3 4  4 5  5 6  6 7  7 8  8 9  9 10  10 11  11 12  12 13  13 14  14 15  15 16  16 17  17 18  18 19  19 20  20 21  21 22  22 23  23 24  24 25  25 26  26 27  27 28  28 29  29 30  30 31  31 32  32 33  33 34  34 35  35 36  36 37  37 38  38 39  39 40  40 41  41 42  42 43  43 44  44 45  45 46  46 47  47 48  48 49  49 50  50 51  51 52  52 53  53 54  54 55  55 56  56 57  57 58  58 59  59 60  60 61  61 62  62 63  63 64  64 65  65 66  66 67  67 68  68 69  69 70  70 71  71 72  72 73  73 74  74 75  75 76  76 77  77 78  78 79  79 80  80 81  81 82  82 83  83 84  84 85  85 86  86 87  87 88  88 89  89 90  90 91  91 92  92 93  93 94  94 95  95 96  96 97  97 98  98 99  99 100  </DataArray>
<DataArray  type="UInt32"  Name="offsets"  format="ascii">2 4 6 8 10 12 14 16 18 20 22 24 26 28 30 32 34 36 38 40 42 44 46 48 50 52 54 56 58 60 62 64 66 68 70 72 74 76 78 80 82 84 86 88 90 92 94 96 98 100 102 104 106 108 110 112 114 116 118 120 122 124 126 128 130 132 134 136 138 140 142 144 146 148 150 152 154 156 158 160 162 164 166 168 170 172 174 176 178 180 182 184 186 188 190 192 194 196 198 200 </DataArray>
<DataArray  type="UInt8"  Name="types"  format="ascii">3 3 3 3 3 3 3 3 3 3 3 3 3 3 3 3 3 3 3 3 3 3 3 3 3 3 3 3 3 3 3 3 3 3 3 3 3 3 3 3 3 3 3 3 3 3 3 3 3 3 3 3 3 3 3 3 3 3 3 3 3 3 3 3 3 3 3 3 3 3 3 3 3 3 3 3 3 3 3 3 3 3 3 3 3 3 3 3 3 3 3 3 3 3 3 3 3 3 3 3 </DataArray>
</Cells>
<PointData  Scalars="f_5037"> 
<DataArray  type="Float64"  Name="f_5037"  format="ascii">-1.0097419586828945e-21  1.3628852264683970e-05  2.6179776043025070e-05  3.7158488141812364e-05  4.6393945469428762e-05  5.3945571091803160e-05  5.9986804504420016e-05  6.4737485800166127e-05  6.8421721019006518e-05  7.1246242627085322e-05  7.3390754088704512e-05  7.5005475238987124e-05  7.6212514572690333e-05  7.7109062779142544e-05  7.7771212163351393e-05  7.8257748589585725e-05  7.8613589691676960e-05  7.8872738381608704e-05  7.9060729865441758e-05  7.9196606952433685e-05  7.9294483453426465e-05  7.9364762502858645e-05  7.9415074087139443e-05  7.9450988981847120e-05  7.9476557615920516e-05  7.9494713690554024e-05  7.9507574475685307e-05  7.9516662908070833e-05  7.9523070979589072e-05  7.9527579355192252e-05  7.9530744559822521e-05  7.9532962268678311e-05  7.9534513077245906e-05  7.9535595484566933e-05  7.9536349583450856e-05  7.9536874022960024e-05  7.9537238117949628e-05  7.9537490469864112e-05  7.9537665087493265e-05  7.9537785721584971e-05  7.9537868926979097e-05  7.9537926220642509e-05  7.9537965598953423e-05  7.9537992601926577e-05  7.9538011057738516e-05  7.9538023602004082e-05  7.9538032038453972e-05  7.9538037587815222e-05  7.9538041057522301e-05  7.9538042954715044e-05  7.9538043557594092e-05  7.9538042954715112e-05  7.9538041057522341e-05  7.9538037587815276e-05  7.9538032038454012e-05  7.9538023602004082e-05  7.9538011057738475e-05  7.9537992601926510e-05  7.9537965598953329e-05  7.9537926220642373e-05  7.9537868926978880e-05  7.9537785721584794e-05  7.9537665087493076e-05  7.9537490469863922e-05  7.9537238117949506e-05  7.9536874022959888e-05  7.9536349583450694e-05  7.9535595484566811e-05  7.9534513077245811e-05  7.9532962268678338e-05  7.9530744559822467e-05  7.9527579355192292e-05  7.9523070979589032e-05  7.9516662908070833e-05  7.9507574475685280e-05  7.9494713690554051e-05  7.9476557615920583e-05  7.9450988981847107e-05  7.9415074087139511e-05  7.9364762502858753e-05  7.9294483453426560e-05  7.9196606952433739e-05  7.9060729865441853e-05  7.8872738381608812e-05  7.8613589691677054e-05  7.8257748589585820e-05  7.7771212163351474e-05  7.7109062779142639e-05  7.6212514572690415e-05  7.5005475238987179e-05  7.3390754088704553e-05  7.1246242627085336e-05  6.8421721019006586e-05  6.4737485800166167e-05  5.9986804504419955e-05  5.3945571091803160e-05  4.6393945469428708e-05  3.7158488141812418e-05  2.6179776043025053e-05  1.3628852264684074e-05  1.0097419586828874e-21  </DataArray> 
</PointData> 
</Piece>
</UnstructuredGrid>
</VTKFile>