<?xml version="1.0"?>
<VTKFile type="UnstructuredGrid"  version="0.1"  >
<UnstructuredGrid>
<Piece  NumberOfPoints="101" NumberOfCells="100">
<Points>
<DataArray  type="Float64"  NumberOfComponents="3"  format="ascii">0 0 0  1e-07 0 0  2e-07 0 0  3e-07 0 0  4e-07 0 0  5e-07 0 0  6.000000000000001e-07 0 0  7.000000000000001e-07 0 0  8.000000000000001e-07 0 0  9.000000000000001e-07 0 0  1e-06 0 0  1.1e-06 0 0  1.2e-06 0 0  1.3e-06 0 0  1.4e-06 0 0  1.5e-06 0 0  1.6e-06 0 0  1.7e-06 0 0  1.8e-06 0 0  1.9e-06 0 0  2e-06 0 0  2.1e-06 0 0  2.2e-06 0 0  2.3e-06 0 0  2.4e-06 0 0  2.5e-06 0 0  2.600000000000001e-06 0 0  2.7e-06 0 0  2.8e-06 0 0  2.9e-06 0 0  3e-06 0 0  3.1e-06 0 0  3.2e-06 0 0  3.300000000000001e-06 0 0  3.4e-06 0 0  3.5e-06 0 0  3.6e-06 0 0  3.700000000000001e-06 0 0  3.8e-06 0 0  3.900000000000001e-06 0 0  4e-06 0 0  4.100000000000001e-06 0 0  4.2e-06 0 0  4.3e-06 0 0  4.4e-06 0 0  4.5e-06 0 0  4.6e-06 0 0  4.700000000000001e-06 0 0  4.800000000000001e-06 0 0  4.900000000000001e-06 0 0  5e-06 0 0  5.1e-06 0 0  5.200000000000001e-06 0 0  5.300000000000001e-06 0 0  5.4e-06 0 0  5.500000000000001e-06 0 0  5.600000000000001e-06 0 0  5.7e-06 0 0  5.8e-06 0 0  5.9e-06 0 0  6e-06 0 0  6.100000000000001e-06 0 0  6.2e-06 0 0  6.300000000000001e-06 0 0  6.400000000000001e-06 0 0  6.5e-06 0 0  6.600000000000001e-06 0 0  6.7e-06 0 0  6.8e-06 0 0  6.900000000000001e-06 0 0  7.000000000000001e-06 0 0  7.1e-06 0 0  7.200000000000001e-06 0 0  7.3e-06 0 0  7.400000000000001e-06 0 0  7.5e-06 0 0  7.6e-06 0 0  7.700000000000001e-06 0 0  7.800000000000002e-06 0 0  7.900000000000001e-06 0 0  8e-06 0 0  8.1e-06 0 0  8.200000000000001e-06 0 0  8.300000000000002e-06 0 0  8.400000000000001e-06 0 0  8.5e-06 0 0  8.600000000000001e-06 0 0  8.700000000000001e-06 0 0  8.8e-06 0 0  8.900000000000001e-06 0 0  9e-06 0 0  9.100000000000001e-06 0 0  9.2e-06 0 0  9.300000000000001e-06 0 0  9.400000000000001e-06 0 0  9.500000000000001e-06 0 0  9.600000000000001e-06 0 0  9.7e-06 0 0  9.800000000000001e-06 0 0  9.9e-06 0 0  1e-05 0 0  </DataArray>
</Points>
<Cells>
<DataArray  type="UInt32"  Name="connectivity"  format="ascii">0 1  1 2  2 3  3 4  4 5  5 6  6 7  7 8  8 9  9 10  10 11  11 12  12 13  13 14  14 15  15 16  16 17  17 18  18 19  19 20  20 21  21 22  22 23  23 24  24 25  25 26  26 27  27 28  28 29  29 30  30 31  31 32  32 33  33 34  34 35  35 36  36 37  37 38  38 39  39 40  40 41  41 42  42 43  43 44  44 45  45 46  46 47  47 48  48 49  49 50  50 51  51 52  52 53  53 54  54 55  55 56  56 57  57 58  58 59  59 60  60 61  61 62  62 63  63 64  64 65  65 66  66 67  67 68  68 69  69 70  70 71  71 72  72 73  73 74  74 75  75 76  76 77  77 78  78 79  79 80  80 81  81 82  82 83  83 84  84 85  85 86  86 87  87 88  88 89  89 90  90 91  91 92  92 93  93 94  94 95  95 96  96 97  97 98  98 99  99 100  </DataArray>
<DataArray  type="UInt32"  Name="offsets"  format="ascii">2 4 6 8 10 12 14 16 18 20 22 24 26 28 30 32 34 36 38 40 42 44 46 48 50 52 54 56 58 60 62 64 66 68 70 72 74 76 78 80 82 84 86 88 90 92 94 96 98 100 102 104 106 108 110 112 114 116 118 120 122 124 126 128 130 132 134 136 138 140 142 144 146 148 150 152 154 156 158 160 162 164 166 168 170 172 174 176 178 180 182 184 186 188 190 192 194 196 198 200 </DataArray>
<DataArray  type="UInt8"  Name="types"  format="ascii">3 3 3 3 3 3 3 3 3 3 3 3 3 3 3 3 3 3 3 3 3 3 3 3 3 3 3 3 3 3 3 3 3 3 3 3 3 3 3 3 3 3 3 3 3 3 3 3 3 3 3 3 3 3 3 3 3 3 3 3 3 3 3 3 3 3 3 3 3 3 3 3 3 3 3 3 3 3 3 3 3 3 3 3 3 3 3 3 3 3 3 3 3 3 3 3 3 3 3 3 </DataArray>
</Cells>
<PointData  Scalars="f_4872"> 
<DataArray  type="Float64"  Name="f_4872"  format="ascii">3.2311742677852625e-20  1.1128819594337494e-04  1.8745952331680621e-04  2.4208859445865814e-04  2.8078702862634273e-04  3.0852289067204023e-04  3.2839599218904857e-04  3.4265664560248195e-04  3.5288120755027274e-04  3.6020427108422645e-04  3.6544050424854274e-04  3.6917754568375284e-04  3.7183905715534161e-04  3.7373041001824599e-04  3.7507140789757952e-04  3.7602000005731870e-04  3.7668945585052566e-04  3.7716082258266190e-04  3.7749195411212962e-04  3.7772404678880223e-04  3.7788636222962961e-04  3.7799963264226839e-04  3.7807851028458792e-04  3.7813332484023349e-04  3.7817134088277590e-04  3.7819765518273991e-04  3.7821583525627213e-04  3.7822837253369295e-04  3.7823700309905597e-04  3.7824293409876756e-04  3.7824700314819070e-04  3.7824979028086201e-04  3.7825169637586417e-04  3.7825299797011723e-04  3.7825388547781330e-04  3.7825448978045991e-04  3.7825490068615431e-04  3.7825517971757245e-04  3.7825536895320493e-04  3.7825549712798963e-04  3.7825558383490601e-04  3.7825564241333409e-04  3.7825568193101402e-04  3.7825570854151802e-04  3.7825572641214580e-04  3.7825573835665715e-04  3.7825574626530750e-04  3.7825575139551767e-04  3.7825575456632189e-04  3.7825575628565555e-04  3.7825575682961290e-04  3.7825575628565555e-04  3.7825575456632211e-04  3.7825575139551761e-04  3.7825574626530783e-04  3.7825573835665704e-04  3.7825572641214558e-04  3.7825570854151797e-04  3.7825568193101353e-04  3.7825564241333355e-04  3.7825558383490547e-04  3.7825549712798887e-04  3.7825536895320434e-04  3.7825517971757196e-04  3.7825490068615355e-04  3.7825448978045996e-04  3.7825388547781265e-04  3.7825299797011696e-04  3.7825169637586395e-04  3.7824979028086201e-04  3.7824700314819060e-04  3.7824293409876762e-04  3.7823700309905597e-04  3.7822837253369295e-04  3.7821583525627218e-04  3.7819765518273997e-04  3.7817134088277595e-04  3.7813332484023360e-04  3.7807851028458776e-04  3.7799963264226861e-04  3.7788636222963005e-04  3.7772404678880234e-04  3.7749195411213010e-04  3.7716082258266212e-04  3.7668945585052582e-04  3.7602000005731913e-04  3.7507140789757974e-04  3.7373041001824631e-04  3.7183905715534188e-04  3.6917754568375306e-04  3.6544050424854285e-04  3.6020427108422645e-04  3.5288120755027318e-04  3.4265664560248217e-04  3.2839599218904841e-04  3.0852289067204023e-04  2.8078702862634279e-04  2.4208859445865830e-04  1.8745952331680608e-04  1.1128819594337570e-04  8.0779356694630992e-21  </DataArray> 
</PointData> 
</Piece>
</UnstructuredGrid>
</VTKFile>