<?xml version="1.0"?>
<VTKFile type="UnstructuredGrid"  version="0.1"  >
<UnstructuredGrid>
<Piece  NumberOfPoints="101" NumberOfCells="100">
<Points>
<DataArray  type="Float64"  NumberOfComponents="3"  format="ascii">0 0 0  1e-07 0 0  2e-07 0 0  3e-07 0 0  4e-07 0 0  5e-07 0 0  6.000000000000001e-07 0 0  7.000000000000001e-07 0 0  8.000000000000001e-07 0 0  9.000000000000001e-07 0 0  1e-06 0 0  1.1e-06 0 0  1.2e-06 0 0  1.3e-06 0 0  1.4e-06 0 0  1.5e-06 0 0  1.6e-06 0 0  1.7e-06 0 0  1.8e-06 0 0  1.9e-06 0 0  2e-06 0 0  2.1e-06 0 0  2.2e-06 0 0  2.3e-06 0 0  2.4e-06 0 0  2.5e-06 0 0  2.600000000000001e-06 0 0  2.7e-06 0 0  2.8e-06 0 0  2.9e-06 0 0  3e-06 0 0  3.1e-06 0 0  3.2e-06 0 0  3.300000000000001e-06 0 0  3.4e-06 0 0  3.5e-06 0 0  3.6e-06 0 0  3.700000000000001e-06 0 0  3.8e-06 0 0  3.900000000000001e-06 0 0  4e-06 0 0  4.100000000000001e-06 0 0  4.2e-06 0 0  4.3e-06 0 0  4.4e-06 0 0  4.5e-06 0 0  4.6e-06 0 0  4.700000000000001e-06 0 0  4.800000000000001e-06 0 0  4.900000000000001e-06 0 0  5e-06 0 0  5.1e-06 0 0  5.200000000000001e-06 0 0  5.300000000000001e-06 0 0  5.4e-06 0 0  5.500000000000001e-06 0 0  5.600000000000001e-06 0 0  5.7e-06 0 0  5.8e-06 0 0  5.9e-06 0 0  6e-06 0 0  6.100000000000001e-06 0 0  6.2e-06 0 0  6.300000000000001e-06 0 0  6.400000000000001e-06 0 0  6.5e-06 0 0  6.600000000000001e-06 0 0  6.7e-06 0 0  6.8e-06 0 0  6.900000000000001e-06 0 0  7.000000000000001e-06 0 0  7.1e-06 0 0  7.200000000000001e-06 0 0  7.3e-06 0 0  7.400000000000001e-06 0 0  7.5e-06 0 0  7.6e-06 0 0  7.700000000000001e-06 0 0  7.800000000000002e-06 0 0  7.900000000000001e-06 0 0  8e-06 0 0  8.1e-06 0 0  8.200000000000001e-06 0 0  8.300000000000002e-06 0 0  8.400000000000001e-06 0 0  8.5e-06 0 0  8.600000000000001e-06 0 0  8.700000000000001e-06 0 0  8.8e-06 0 0  8.900000000000001e-06 0 0  9e-06 0 0  9.100000000000001e-06 0 0  9.2e-06 0 0  9.300000000000001e-06 0 0  9.400000000000001e-06 0 0  9.500000000000001e-06 0 0  9.600000000000001e-06 0 0  9.7e-06 0 0  9.800000000000001e-06 0 0  9.9e-06 0 0  1e-05 0 0  </DataArray>
</Points>
<Cells>
<DataArray  type="UInt32"  Name="connectivity"  format="ascii">0 1  1 2  2 3  3 4  4 5  5 6  6 7  7 8  8 9  9 10  10 11  11 12  12 13  13 14  14 15  15 16  16 17  17 18  18 19  19 20  20 21  21 22  22 23  23 24  24 25  25 26  26 27  27 28  28 29  29 30  30 31  31 32  32 33  33 34  34 35  35 36  36 37  37 38  38 39  39 40  40 41  41 42  42 43  43 44  44 45  45 46  46 47  47 48  48 49  49 50  50 51  51 52  52 53  53 54  54 55  55 56  56 57  57 58  58 59  59 60  60 61  61 62  62 63  63 64  64 65  65 66  66 67  67 68  68 69  69 70  70 71  71 72  72 73  73 74  74 75  75 76  76 77  77 78  78 79  79 80  80 81  81 82  82 83  83 84  84 85  85 86  86 87  87 88  88 89  89 90  90 91  91 92  92 93  93 94  94 95  95 96  96 97  97 98  98 99  99 100  </DataArray>
<DataArray  type="UInt32"  Name="offsets"  format="ascii">2 4 6 8 10 12 14 16 18 20 22 24 26 28 30 32 34 36 38 40 42 44 46 48 50 52 54 56 58 60 62 64 66 68 70 72 74 76 78 80 82 84 86 88 90 92 94 96 98 100 102 104 106 108 110 112 114 116 118 120 122 124 126 128 130 132 134 136 138 140 142 144 146 148 150 152 154 156 158 160 162 164 166 168 170 172 174 176 178 180 182 184 186 188 190 192 194 196 198 200 </DataArray>
<DataArray  type="UInt8"  Name="types"  format="ascii">3 3 3 3 3 3 3 3 3 3 3 3 3 3 3 3 3 3 3 3 3 3 3 3 3 3 3 3 3 3 3 3 3 3 3 3 3 3 3 3 3 3 3 3 3 3 3 3 3 3 3 3 3 3 3 3 3 3 3 3 3 3 3 3 3 3 3 3 3 3 3 3 3 3 3 3 3 3 3 3 3 3 3 3 3 3 3 3 3 3 3 3 3 3 3 3 3 3 3 3 </DataArray>
</Cells>
<PointData  Scalars="f_692"> 
<DataArray  type="Float64"  Name="f_692"  format="ascii">-2.5849394142282100e-19  2.0122808633329455e-03  1.8558616888001821e-03  1.9864473713416763e-03  2.0139749153879577e-03  2.0467473482661566e-03  2.0642820775878894e-03  2.0767486046586489e-03  2.0846200806503936e-03  2.0898362786973845e-03  2.0932334479236789e-03  2.0954763950449293e-03  2.0969733969001965e-03  2.0980061516098136e-03  2.0987658202631233e-03  2.0993905543164148e-03  2.0999873891045092e-03  2.1006485096844662e-03  2.1014626270316797e-03  2.1025232649944953e-03  2.1039343967235659e-03  2.1058133365757393e-03  2.1082901304866034e-03  2.1115021432164247e-03  2.1155821422538645e-03  2.1206381455209111e-03  2.1267239554849404e-03  2.1338010650308057e-03  2.1416958705436947e-03  2.1500609130524514e-03  2.1583544269471048e-03  2.1658568693900568e-03  2.1717432874379058e-03  2.1752212786808221e-03  2.1757173017744901e-03  2.1730482272603871e-03  2.1674859423948321e-03  2.1596690775613340e-03  2.1504163280367315e-03  2.1405359033266854e-03  2.1306916676247776e-03  2.1213381571192221e-03  2.1127082438602181e-03  2.1048295122303409e-03  2.0975509599542191e-03  2.0905681465975918e-03  2.0834581096600201e-03  2.0756929198169050e-03  2.0667821828518548e-03  2.0557386974928574e-03  2.0429529968158822e-03  2.0253574922584998e-03  1.9978391383363319e-03  1.9482604442858304e-03  1.8798993770979804e-03  1.6818958175215310e-03  1.5130503373976423e-03  1.4783611953578472e-03  1.4575566282789510e-03  1.4425117683384799e-03  1.4214298537079935e-03  1.3922637023352413e-03  1.3530927708709343e-03  1.3016634516277636e-03  1.2343453693000736e-03  1.1468566608074469e-03  1.0359870603544915e-03  9.0218363426190198e-04  7.5176087789089591e-04  5.9674178716150419e-04  4.5128414009271080e-04  3.2659933583005610e-04  2.2785122323729329e-04  1.5447989572893651e-04  1.0253666462182220e-04  6.7028561544429184e-05  4.3345916304157095e-05  2.7817604510505175e-05  1.7755088247015346e-05  1.1287539333187052e-05  7.1545028812675993e-06  4.5243021861821461e-06  2.8556808167042006e-06  1.7996401330125091e-06  1.1325857693697946e-06  7.1191947211973385e-07  4.4700499775958536e-07  2.8038271457836635e-07  1.7570117937024356e-07  1.1000259934952516e-07  6.8809457923086190e-08  4.3003918062923695e-08  2.6850237820140338e-08  1.6743790274603605e-08  1.0420875355698191e-08  6.4601324248695603e-09  3.9680840348844239e-09  2.3806229995949012e-09  1.3371576891140224e-09  5.9982893855419677e-10  6.1629758220391077e-26  </DataArray> 
</PointData> 
</Piece>
</UnstructuredGrid>
</VTKFile>