<?xml version="1.0"?>
<VTKFile type="UnstructuredGrid"  version="0.1"  >
<UnstructuredGrid>
<Piece  NumberOfPoints="101" NumberOfCells="100">
<Points>
<DataArray  type="Float64"  NumberOfComponents="3"  format="ascii">0 0 0  1e-07 0 0  2e-07 0 0  3e-07 0 0  4e-07 0 0  5e-07 0 0  6.000000000000001e-07 0 0  7.000000000000001e-07 0 0  8.000000000000001e-07 0 0  9.000000000000001e-07 0 0  1e-06 0 0  1.1e-06 0 0  1.2e-06 0 0  1.3e-06 0 0  1.4e-06 0 0  1.5e-06 0 0  1.6e-06 0 0  1.7e-06 0 0  1.8e-06 0 0  1.9e-06 0 0  2e-06 0 0  2.1e-06 0 0  2.2e-06 0 0  2.3e-06 0 0  2.4e-06 0 0  2.5e-06 0 0  2.600000000000001e-06 0 0  2.7e-06 0 0  2.8e-06 0 0  2.9e-06 0 0  3e-06 0 0  3.1e-06 0 0  3.2e-06 0 0  3.300000000000001e-06 0 0  3.4e-06 0 0  3.5e-06 0 0  3.6e-06 0 0  3.700000000000001e-06 0 0  3.8e-06 0 0  3.900000000000001e-06 0 0  4e-06 0 0  4.100000000000001e-06 0 0  4.2e-06 0 0  4.3e-06 0 0  4.4e-06 0 0  4.5e-06 0 0  4.6e-06 0 0  4.700000000000001e-06 0 0  4.800000000000001e-06 0 0  4.900000000000001e-06 0 0  5e-06 0 0  5.1e-06 0 0  5.200000000000001e-06 0 0  5.300000000000001e-06 0 0  5.4e-06 0 0  5.500000000000001e-06 0 0  5.600000000000001e-06 0 0  5.7e-06 0 0  5.8e-06 0 0  5.9e-06 0 0  6e-06 0 0  6.100000000000001e-06 0 0  6.2e-06 0 0  6.300000000000001e-06 0 0  6.400000000000001e-06 0 0  6.5e-06 0 0  6.600000000000001e-06 0 0  6.7e-06 0 0  6.8e-06 0 0  6.900000000000001e-06 0 0  7.000000000000001e-06 0 0  7.1e-06 0 0  7.200000000000001e-06 0 0  7.3e-06 0 0  7.400000000000001e-06 0 0  7.5e-06 0 0  7.6e-06 0 0  7.700000000000001e-06 0 0  7.800000000000002e-06 0 0  7.900000000000001e-06 0 0  8e-06 0 0  8.1e-06 0 0  8.200000000000001e-06 0 0  8.300000000000002e-06 0 0  8.400000000000001e-06 0 0  8.5e-06 0 0  8.600000000000001e-06 0 0  8.700000000000001e-06 0 0  8.8e-06 0 0  8.900000000000001e-06 0 0  9e-06 0 0  9.100000000000001e-06 0 0  9.2e-06 0 0  9.300000000000001e-06 0 0  9.400000000000001e-06 0 0  9.500000000000001e-06 0 0  9.600000000000001e-06 0 0  9.7e-06 0 0  9.800000000000001e-06 0 0  9.9e-06 0 0  1e-05 0 0  </DataArray>
</Points>
<Cells>
<DataArray  type="UInt32"  Name="connectivity"  format="ascii">0 1  1 2  2 3  3 4  4 5  5 6  6 7  7 8  8 9  9 10  10 11  11 12  12 13  13 14  14 15  15 16  16 17  17 18  18 19  19 20  20 21  21 22  22 23  23 24  24 25  25 26  26 27  27 28  28 29  29 30  30 31  31 32  32 33  33 34  34 35  35 36  36 37  37 38  38 39  39 40  40 41  41 42  42 43  43 44  44 45  45 46  46 47  47 48  48 49  49 50  50 51  51 52  52 53  53 54  54 55  55 56  56 57  57 58  58 59  59 60  60 61  61 62  62 63  63 64  64 65  65 66  66 67  67 68  68 69  69 70  70 71  71 72  72 73  73 74  74 75  75 76  76 77  77 78  78 79  79 80  80 81  81 82  82 83  83 84  84 85  85 86  86 87  87 88  88 89  89 90  90 91  91 92  92 93  93 94  94 95  95 96  96 97  97 98  98 99  99 100  </DataArray>
<DataArray  type="UInt32"  Name="offsets"  format="ascii">2 4 6 8 10 12 14 16 18 20 22 24 26 28 30 32 34 36 38 40 42 44 46 48 50 52 54 56 58 60 62 64 66 68 70 72 74 76 78 80 82 84 86 88 90 92 94 96 98 100 102 104 106 108 110 112 114 116 118 120 122 124 126 128 130 132 134 136 138 140 142 144 146 148 150 152 154 156 158 160 162 164 166 168 170 172 174 176 178 180 182 184 186 188 190 192 194 196 198 200 </DataArray>
<DataArray  type="UInt8"  Name="types"  format="ascii">3 3 3 3 3 3 3 3 3 3 3 3 3 3 3 3 3 3 3 3 3 3 3 3 3 3 3 3 3 3 3 3 3 3 3 3 3 3 3 3 3 3 3 3 3 3 3 3 3 3 3 3 3 3 3 3 3 3 3 3 3 3 3 3 3 3 3 3 3 3 3 3 3 3 3 3 3 3 3 3 3 3 3 3 3 3 3 3 3 3 3 3 3 3 3 3 3 3 3 3 </DataArray>
</Cells>
<PointData  Scalars="f_2177"> 
<DataArray  type="Float64"  Name="f_2177"  format="ascii">-2.5849394142282100e-19  1.8325544701516924e-03  1.7541278171131929e-03  1.9124864364315046e-03  1.9679680918120619e-03  2.0160322527250463e-03  2.0443749434039754e-03  2.0636689578605099e-03  2.0760564201634541e-03  2.0841987388937121e-03  2.0894997233390049e-03  2.0929643853608878e-03  2.0952252415684974e-03  2.0967015231369737e-03  2.0976652401839373e-03  2.0982944243047490e-03  2.0987051828037706e-03  2.0989733486536282e-03  2.0991484208385987e-03  2.0992627171515918e-03  2.0993373356939047e-03  2.0993860505634592e-03  2.0994178541606542e-03  2.0994386172029961e-03  2.0994521723965566e-03  2.0994610219318656e-03  2.0994667993687248e-03  2.0994705711799709e-03  2.0994730336145011e-03  2.0994746412198138e-03  2.0994756907481474e-03  2.0994763759347962e-03  2.0994768232602298e-03  2.0994771152974758e-03  2.0994773059544833e-03  2.0994774304251541e-03  2.0994775116858744e-03  2.0994775647367844e-03  2.0994775993707008e-03  2.0994776219807965e-03  2.0994776367407376e-03  2.0994776463751029e-03  2.0994776526623367e-03  2.0994776567630170e-03  2.0994776594341147e-03  2.0994776611686942e-03  2.0994776622869616e-03  2.0994776629953485e-03  2.0994776634246331e-03  2.0994776636540711e-03  2.0994776637260327e-03  2.0994776636538196e-03  2.0994776634241262e-03  2.0994776629945770e-03  2.0994776622859147e-03  2.0994776611673554e-03  2.0994776594324624e-03  2.0994776567610325e-03  2.0994776526599875e-03  2.0994776463723647e-03  2.0994776367375748e-03  2.0994776219771774e-03  2.0994775993665891e-03  2.0994775647321428e-03  2.0994775116806668e-03  2.0994774304193445e-03  2.0994773059480362e-03  2.0994771152903586e-03  2.0994768232524149e-03  2.0994763759262596e-03  2.0994756907388675e-03  2.0994746412097815e-03  2.0994730336037089e-03  2.0994705711684237e-03  2.0994667993564364e-03  2.0994610219188564e-03  2.0994521723828653e-03  2.0994386171886616e-03  2.0994178541457382e-03  2.0993860505480280e-03  2.0993373356780376e-03  2.0992627171353803e-03  2.0991484208221435e-03  2.0989733486370412e-03  2.0987051827871697e-03  2.0982944242882635e-03  2.0976652401676977e-03  2.0967015231211166e-03  2.0952252415531642e-03  2.0929643853462160e-03  2.0894997233251371e-03  2.0841987388807793e-03  2.0760564201515869e-03  2.0636689578498323e-03  2.0443749433945910e-03  2.0160322527170704e-03  1.9679680918055433e-03  1.9124864364266159e-03  1.7541278171097382e-03  1.8325544701501871e-03  0.0000000000000000e+00  </DataArray> 
</PointData> 
</Piece>
</UnstructuredGrid>
</VTKFile>