<?xml version="1.0"?>
<VTKFile type="UnstructuredGrid"  version="0.1"  >
<UnstructuredGrid>
<Piece  NumberOfPoints="101" NumberOfCells="100">
<Points>
<DataArray  type="Float64"  NumberOfComponents="3"  format="ascii">0 0 0  1e-07 0 0  2e-07 0 0  3e-07 0 0  4e-07 0 0  5e-07 0 0  6.000000000000001e-07 0 0  7.000000000000001e-07 0 0  8.000000000000001e-07 0 0  9.000000000000001e-07 0 0  1e-06 0 0  1.1e-06 0 0  1.2e-06 0 0  1.3e-06 0 0  1.4e-06 0 0  1.5e-06 0 0  1.6e-06 0 0  1.7e-06 0 0  1.8e-06 0 0  1.9e-06 0 0  2e-06 0 0  2.1e-06 0 0  2.2e-06 0 0  2.3e-06 0 0  2.4e-06 0 0  2.5e-06 0 0  2.600000000000001e-06 0 0  2.7e-06 0 0  2.8e-06 0 0  2.9e-06 0 0  3e-06 0 0  3.1e-06 0 0  3.2e-06 0 0  3.300000000000001e-06 0 0  3.4e-06 0 0  3.5e-06 0 0  3.6e-06 0 0  3.700000000000001e-06 0 0  3.8e-06 0 0  3.900000000000001e-06 0 0  4e-06 0 0  4.100000000000001e-06 0 0  4.2e-06 0 0  4.3e-06 0 0  4.4e-06 0 0  4.5e-06 0 0  4.6e-06 0 0  4.700000000000001e-06 0 0  4.800000000000001e-06 0 0  4.900000000000001e-06 0 0  5e-06 0 0  5.1e-06 0 0  5.200000000000001e-06 0 0  5.300000000000001e-06 0 0  5.4e-06 0 0  5.500000000000001e-06 0 0  5.600000000000001e-06 0 0  5.7e-06 0 0  5.8e-06 0 0  5.9e-06 0 0  6e-06 0 0  6.100000000000001e-06 0 0  6.2e-06 0 0  6.300000000000001e-06 0 0  6.400000000000001e-06 0 0  6.5e-06 0 0  6.600000000000001e-06 0 0  6.7e-06 0 0  6.8e-06 0 0  6.900000000000001e-06 0 0  7.000000000000001e-06 0 0  7.1e-06 0 0  7.200000000000001e-06 0 0  7.3e-06 0 0  7.400000000000001e-06 0 0  7.5e-06 0 0  7.6e-06 0 0  7.700000000000001e-06 0 0  7.800000000000002e-06 0 0  7.900000000000001e-06 0 0  8e-06 0 0  8.1e-06 0 0  8.200000000000001e-06 0 0  8.300000000000002e-06 0 0  8.400000000000001e-06 0 0  8.5e-06 0 0  8.600000000000001e-06 0 0  8.700000000000001e-06 0 0  8.8e-06 0 0  8.900000000000001e-06 0 0  9e-06 0 0  9.100000000000001e-06 0 0  9.2e-06 0 0  9.300000000000001e-06 0 0  9.400000000000001e-06 0 0  9.500000000000001e-06 0 0  9.600000000000001e-06 0 0  9.7e-06 0 0  9.800000000000001e-06 0 0  9.9e-06 0 0  1e-05 0 0  </DataArray>
</Points>
<Cells>
<DataArray  type="UInt32"  Name="connectivity"  format="ascii">0 1  1 2  2 3  3 4  4 5  5 6  6 7  7 8  8 9  9 10  10 11  11 12  12 13  13 14  14 15  15 16  16 17  17 18  18 19  19 20  20 21  21 22  22 23  23 24  24 25  25 26  26 27  27 28  28 29  29 30  30 31  31 32  32 33  33 34  34 35  35 36  36 37  37 38  38 39  39 40  40 41  41 42  42 43  43 44  44 45  45 46  46 47  47 48  48 49  49 50  50 51  51 52  52 53  53 54  54 55  55 56  56 57  57 58  58 59  59 60  60 61  61 62  62 63  63 64  64 65  65 66  66 67  67 68  68 69  69 70  70 71  71 72  72 73  73 74  74 75  75 76  76 77  77 78  78 79  79 80  80 81  81 82  82 83  83 84  84 85  85 86  86 87  87 88  88 89  89 90  90 91  91 92  92 93  93 94  94 95  95 96  96 97  97 98  98 99  99 100  </DataArray>
<DataArray  type="UInt32"  Name="offsets"  format="ascii">2 4 6 8 10 12 14 16 18 20 22 24 26 28 30 32 34 36 38 40 42 44 46 48 50 52 54 56 58 60 62 64 66 68 70 72 74 76 78 80 82 84 86 88 90 92 94 96 98 100 102 104 106 108 110 112 114 116 118 120 122 124 126 128 130 132 134 136 138 140 142 144 146 148 150 152 154 156 158 160 162 164 166 168 170 172 174 176 178 180 182 184 186 188 190 192 194 196 198 200 </DataArray>
<DataArray  type="UInt8"  Name="types"  format="ascii">3 3 3 3 3 3 3 3 3 3 3 3 3 3 3 3 3 3 3 3 3 3 3 3 3 3 3 3 3 3 3 3 3 3 3 3 3 3 3 3 3 3 3 3 3 3 3 3 3 3 3 3 3 3 3 3 3 3 3 3 3 3 3 3 3 3 3 3 3 3 3 3 3 3 3 3 3 3 3 3 3 3 3 3 3 3 3 3 3 3 3 3 3 3 3 3 3 3 3 3 </DataArray>
</Cells>
<PointData  Scalars="f_6137"> 
<DataArray  type="Float64"  Name="f_6137"  format="ascii">9.4039548065782948e-31  6.6080280828147438e-15  1.3174583975913199e-14  1.9659017636078227e-14  2.6022294643441983e-14  3.2227733820178958e-14  3.8241664660406178e-14  4.4033984276017942e-14  4.9578598500006006e-14  5.4853737298738101e-14  5.9842140375132725e-14  6.4531114447753037e-14  6.8912468849857628e-14  7.2982340543857044e-14  7.6740923195568969e-14  8.0192117481167263e-14  8.3343121267602799e-14  8.6203978746496138e-14  8.8787107105308693e-14  9.1106818028045161e-14  9.3178849401603772e-14  9.5019920248340289e-14  9.6647319295238597e-14  9.8078534897165660e-14  9.9330931405651684e-14  1.0042147463670104e-13  1.0136650693119734e-13  1.0218157047797810e-13  1.0288127611175434e-13  1.0347921370936036e-13  1.0398789957120381e-13  1.0441875575757786e-13  1.0478211620862486e-13  1.0508725456347816e-13  1.0534242885810337e-13  1.0555493867387775e-13  1.0573119078528065e-13  1.0587676987610714e-13  1.0599651142671412e-13  1.0609457439403956e-13  1.0617451179209970e-13  1.0623933771992678e-13  1.0629158976826393e-13  1.0633338606191727e-13  1.0636647646113765e-13  1.0639228765501075e-13  1.0641196203676946e-13  1.0642639036059668e-13  1.0643623824803273e-13  1.0644196664602507e-13  1.0644384634454374e-13  1.0644196664602508e-13  1.0643623824803268e-13  1.0642639036059657e-13  1.0641196203676935e-13  1.0639228765501051e-13  1.0636647646113728e-13  1.0633338606191693e-13  1.0629158976826340e-13  1.0623933771992627e-13  1.0617451179209900e-13  1.0609457439403889e-13  1.0599651142671344e-13  1.0587676987610650e-13  1.0573119078528004e-13  1.0555493867387717e-13  1.0534242885810281e-13  1.0508725456347760e-13  1.0478211620862448e-13  1.0441875575757759e-13  1.0398789957120357e-13  1.0347921370936021e-13  1.0288127611175419e-13  1.0218157047797800e-13  1.0136650693119731e-13  1.0042147463670107e-13  9.9330931405651811e-14  9.8078534897165773e-14  9.6647319295238786e-14  9.5019920248340516e-14  9.3178849401604063e-14  9.1106818028045502e-14  8.8787107105308971e-14  8.6203978746496504e-14  8.3343121267603090e-14  8.0192117481167730e-14  7.6740923195569297e-14  7.2982340543857334e-14  6.8912468849857957e-14  6.4531114447753290e-14  5.9842140375132990e-14  5.4853737298738309e-14  4.9578598500006240e-14  4.4033984276018106e-14  3.8241664660406254e-14  3.2227733820179084e-14  2.6022294643442030e-14  1.9659017636078328e-14  1.3174583975913226e-14  6.6080280828148211e-15  -4.7019774032891141e-31  </DataArray> 
</PointData> 
</Piece>
</UnstructuredGrid>
</VTKFile>