<?xml version="1.0"?>
<VTKFile type="UnstructuredGrid"  version="0.1"  >
<UnstructuredGrid>
<Piece  NumberOfPoints="101" NumberOfCells="100">
<Points>
<DataArray  type="Float64"  NumberOfComponents="3"  format="ascii">0 0 0  1e-07 0 0  2e-07 0 0  3e-07 0 0  4e-07 0 0  5e-07 0 0  6.000000000000001e-07 0 0  7.000000000000001e-07 0 0  8.000000000000001e-07 0 0  9.000000000000001e-07 0 0  1e-06 0 0  1.1e-06 0 0  1.2e-06 0 0  1.3e-06 0 0  1.4e-06 0 0  1.5e-06 0 0  1.6e-06 0 0  1.7e-06 0 0  1.8e-06 0 0  1.9e-06 0 0  2e-06 0 0  2.1e-06 0 0  2.2e-06 0 0  2.3e-06 0 0  2.4e-06 0 0  2.5e-06 0 0  2.600000000000001e-06 0 0  2.7e-06 0 0  2.8e-06 0 0  2.9e-06 0 0  3e-06 0 0  3.1e-06 0 0  3.2e-06 0 0  3.300000000000001e-06 0 0  3.4e-06 0 0  3.5e-06 0 0  3.6e-06 0 0  3.700000000000001e-06 0 0  3.8e-06 0 0  3.900000000000001e-06 0 0  4e-06 0 0  4.100000000000001e-06 0 0  4.2e-06 0 0  4.3e-06 0 0  4.4e-06 0 0  4.5e-06 0 0  4.6e-06 0 0  4.700000000000001e-06 0 0  4.800000000000001e-06 0 0  4.900000000000001e-06 0 0  5e-06 0 0  5.1e-06 0 0  5.200000000000001e-06 0 0  5.300000000000001e-06 0 0  5.4e-06 0 0  5.500000000000001e-06 0 0  5.600000000000001e-06 0 0  5.7e-06 0 0  5.8e-06 0 0  5.9e-06 0 0  6e-06 0 0  6.100000000000001e-06 0 0  6.2e-06 0 0  6.300000000000001e-06 0 0  6.400000000000001e-06 0 0  6.5e-06 0 0  6.600000000000001e-06 0 0  6.7e-06 0 0  6.8e-06 0 0  6.900000000000001e-06 0 0  7.000000000000001e-06 0 0  7.1e-06 0 0  7.200000000000001e-06 0 0  7.3e-06 0 0  7.400000000000001e-06 0 0  7.5e-06 0 0  7.6e-06 0 0  7.700000000000001e-06 0 0  7.800000000000002e-06 0 0  7.900000000000001e-06 0 0  8e-06 0 0  8.1e-06 0 0  8.200000000000001e-06 0 0  8.300000000000002e-06 0 0  8.400000000000001e-06 0 0  8.5e-06 0 0  8.600000000000001e-06 0 0  8.700000000000001e-06 0 0  8.8e-06 0 0  8.900000000000001e-06 0 0  9e-06 0 0  9.100000000000001e-06 0 0  9.2e-06 0 0  9.300000000000001e-06 0 0  9.400000000000001e-06 0 0  9.500000000000001e-06 0 0  9.600000000000001e-06 0 0  9.7e-06 0 0  9.800000000000001e-06 0 0  9.9e-06 0 0  1e-05 0 0  </DataArray>
</Points>
<Cells>
<DataArray  type="UInt32"  Name="connectivity"  format="ascii">0 1  1 2  2 3  3 4  4 5  5 6  6 7  7 8  8 9  9 10  10 11  11 12  12 13  13 14  14 15  15 16  16 17  17 18  18 19  19 20  20 21  21 22  22 23  23 24  24 25  25 26  26 27  27 28  28 29  29 30  30 31  31 32  32 33  33 34  34 35  35 36  36 37  37 38  38 39  39 40  40 41  41 42  42 43  43 44  44 45  45 46  46 47  47 48  48 49  49 50  50 51  51 52  52 53  53 54  54 55  55 56  56 57  57 58  58 59  59 60  60 61  61 62  62 63  63 64  64 65  65 66  66 67  67 68  68 69  69 70  70 71  71 72  72 73  73 74  74 75  75 76  76 77  77 78  78 79  79 80  80 81  81 82  82 83  83 84  84 85  85 86  86 87  87 88  88 89  89 90  90 91  91 92  92 93  93 94  94 95  95 96  96 97  97 98  98 99  99 100  </DataArray>
<DataArray  type="UInt32"  Name="offsets"  format="ascii">2 4 6 8 10 12 14 16 18 20 22 24 26 28 30 32 34 36 38 40 42 44 46 48 50 52 54 56 58 60 62 64 66 68 70 72 74 76 78 80 82 84 86 88 90 92 94 96 98 100 102 104 106 108 110 112 114 116 118 120 122 124 126 128 130 132 134 136 138 140 142 144 146 148 150 152 154 156 158 160 162 164 166 168 170 172 174 176 178 180 182 184 186 188 190 192 194 196 198 200 </DataArray>
<DataArray  type="UInt8"  Name="types"  format="ascii">3 3 3 3 3 3 3 3 3 3 3 3 3 3 3 3 3 3 3 3 3 3 3 3 3 3 3 3 3 3 3 3 3 3 3 3 3 3 3 3 3 3 3 3 3 3 3 3 3 3 3 3 3 3 3 3 3 3 3 3 3 3 3 3 3 3 3 3 3 3 3 3 3 3 3 3 3 3 3 3 3 3 3 3 3 3 3 3 3 3 3 3 3 3 3 3 3 3 3 3 </DataArray>
</Cells>
<PointData  Scalars="f_1957"> 
<DataArray  type="Float64"  Name="f_1957"  format="ascii">-5.1698788284564201e-19  1.8325544701697043e-03  1.7541278171540184e-03  1.9124864364885865e-03  1.9679680918867279e-03  2.0160322528143034e-03  2.0443749435060080e-03  2.0636689579727921e-03  2.0760564202835130e-03  2.0841987390190085e-03  2.0894997234670912e-03  2.0929643854894573e-03  2.0952252416954627e-03  2.0967015232605038e-03  2.0976652403024948e-03  2.0982944244170962e-03  2.0987051829089750e-03  2.0989733487510511e-03  2.0991484209278667e-03  2.0992627172325695e-03  2.0993373357666633e-03  2.0993860506282385e-03  2.0994178542178225e-03  2.0994386172530212e-03  2.0994521724399685e-03  2.0994610219692328e-03  2.0994667994006289e-03  2.0994705712069823e-03  2.0994730336371709e-03  2.0994746412386568e-03  2.0994756907636316e-03  2.0994763759473447e-03  2.0994768232702092e-03  2.0994771153051983e-03  2.0994773059602070e-03  2.0994774304290810e-03  2.0994775116881500e-03  2.0994775647375018e-03  2.0994775993698964e-03  2.0994776219784524e-03  2.0994776367367772e-03  2.0994776463693905e-03  2.0994776526546701e-03  2.0994776567531308e-03  2.0994776594216564e-03  2.0994776611532365e-03  2.0994776622679711e-03  2.0994776629721947e-03  2.0994776633965558e-03  2.0994776636201811e-03  2.0994776636852862e-03  2.0994776636050093e-03  2.0994776633658572e-03  2.0994776629252566e-03  2.0994776622037291e-03  2.0994776610702643e-03  2.0994776593181831e-03  2.0994776566270338e-03  2.0994776525034872e-03  2.0994776461903332e-03  2.0994776365267495e-03  2.0994776217340833e-03  2.0994775990875684e-03  2.0994775644134012e-03  2.0994775113183251e-03  2.0994774300095104e-03  2.0994773054868769e-03  2.0994771147742003e-03  2.0994768226778376e-03  2.0994763752902063e-03  2.0994756900387648e-03  2.0994746404436513e-03  2.0994730327702840e-03  2.0994705702672600e-03  2.0994667983880166e-03  2.0994610208846668e-03  2.0994521712854736e-03  2.0994386160317641e-03  2.0994178529341713e-03  2.0993860492877817e-03  2.0993373343762139e-03  2.0992627158001403e-03  2.0991484194626243e-03  2.0989733472632421e-03  2.0987051814098357e-03  2.0982944229187236e-03  2.0976652388177155e-03  2.0967015218027129e-03  2.0952252402784413e-03  2.0929643841271790e-03  2.0894997221735114e-03  2.0841987378078597e-03  2.0760564191680182e-03  2.0636689569656220e-03  2.0443749426184393e-03  2.0160322520579354e-03  1.9679680912673670e-03  1.9124864360231563e-03  1.7541278168249172e-03  1.8325544700257747e-03  1.2924697071140959e-19  </DataArray> 
</PointData> 
</Piece>
</UnstructuredGrid>
</VTKFile>