<?xml version="1.0"?>
<VTKFile type="UnstructuredGrid"  version="0.1"  >
<UnstructuredGrid>
<Piece  NumberOfPoints="101" NumberOfCells="100">
<Points>
<DataArray  type="Float64"  NumberOfComponents="3"  format="ascii">0 0 0  1e-07 0 0  2e-07 0 0  3e-07 0 0  4e-07 0 0  5e-07 0 0  6.000000000000001e-07 0 0  7.000000000000001e-07 0 0  8.000000000000001e-07 0 0  9.000000000000001e-07 0 0  1e-06 0 0  1.1e-06 0 0  1.2e-06 0 0  1.3e-06 0 0  1.4e-06 0 0  1.5e-06 0 0  1.6e-06 0 0  1.7e-06 0 0  1.8e-06 0 0  1.9e-06 0 0  2e-06 0 0  2.1e-06 0 0  2.2e-06 0 0  2.3e-06 0 0  2.4e-06 0 0  2.5e-06 0 0  2.600000000000001e-06 0 0  2.7e-06 0 0  2.8e-06 0 0  2.9e-06 0 0  3e-06 0 0  3.1e-06 0 0  3.2e-06 0 0  3.300000000000001e-06 0 0  3.4e-06 0 0  3.5e-06 0 0  3.6e-06 0 0  3.700000000000001e-06 0 0  3.8e-06 0 0  3.900000000000001e-06 0 0  4e-06 0 0  4.100000000000001e-06 0 0  4.2e-06 0 0  4.3e-06 0 0  4.4e-06 0 0  4.5e-06 0 0  4.6e-06 0 0  4.700000000000001e-06 0 0  4.800000000000001e-06 0 0  4.900000000000001e-06 0 0  5e-06 0 0  5.1e-06 0 0  5.200000000000001e-06 0 0  5.300000000000001e-06 0 0  5.4e-06 0 0  5.500000000000001e-06 0 0  5.600000000000001e-06 0 0  5.7e-06 0 0  5.8e-06 0 0  5.9e-06 0 0  6e-06 0 0  6.100000000000001e-06 0 0  6.2e-06 0 0  6.300000000000001e-06 0 0  6.400000000000001e-06 0 0  6.5e-06 0 0  6.600000000000001e-06 0 0  6.7e-06 0 0  6.8e-06 0 0  6.900000000000001e-06 0 0  7.000000000000001e-06 0 0  7.1e-06 0 0  7.200000000000001e-06 0 0  7.3e-06 0 0  7.400000000000001e-06 0 0  7.5e-06 0 0  7.6e-06 0 0  7.700000000000001e-06 0 0  7.800000000000002e-06 0 0  7.900000000000001e-06 0 0  8e-06 0 0  8.1e-06 0 0  8.200000000000001e-06 0 0  8.300000000000002e-06 0 0  8.400000000000001e-06 0 0  8.5e-06 0 0  8.600000000000001e-06 0 0  8.700000000000001e-06 0 0  8.8e-06 0 0  8.900000000000001e-06 0 0  9e-06 0 0  9.100000000000001e-06 0 0  9.2e-06 0 0  9.300000000000001e-06 0 0  9.400000000000001e-06 0 0  9.500000000000001e-06 0 0  9.600000000000001e-06 0 0  9.7e-06 0 0  9.800000000000001e-06 0 0  9.9e-06 0 0  1e-05 0 0  </DataArray>
</Points>
<Cells>
<DataArray  type="UInt32"  Name="connectivity"  format="ascii">0 1  1 2  2 3  3 4  4 5  5 6  6 7  7 8  8 9  9 10  10 11  11 12  12 13  13 14  14 15  15 16  16 17  17 18  18 19  19 20  20 21  21 22  22 23  23 24  24 25  25 26  26 27  27 28  28 29  29 30  30 31  31 32  32 33  33 34  34 35  35 36  36 37  37 38  38 39  39 40  40 41  41 42  42 43  43 44  44 45  45 46  46 47  47 48  48 49  49 50  50 51  51 52  52 53  53 54  54 55  55 56  56 57  57 58  58 59  59 60  60 61  61 62  62 63  63 64  64 65  65 66  66 67  67 68  68 69  69 70  70 71  71 72  72 73  73 74  74 75  75 76  76 77  77 78  78 79  79 80  80 81  81 82  82 83  83 84  84 85  85 86  86 87  87 88  88 89  89 90  90 91  91 92  92 93  93 94  94 95  95 96  96 97  97 98  98 99  99 100  </DataArray>
<DataArray  type="UInt32"  Name="offsets"  format="ascii">2 4 6 8 10 12 14 16 18 20 22 24 26 28 30 32 34 36 38 40 42 44 46 48 50 52 54 56 58 60 62 64 66 68 70 72 74 76 78 80 82 84 86 88 90 92 94 96 98 100 102 104 106 108 110 112 114 116 118 120 122 124 126 128 130 132 134 136 138 140 142 144 146 148 150 152 154 156 158 160 162 164 166 168 170 172 174 176 178 180 182 184 186 188 190 192 194 196 198 200 </DataArray>
<DataArray  type="UInt8"  Name="types"  format="ascii">3 3 3 3 3 3 3 3 3 3 3 3 3 3 3 3 3 3 3 3 3 3 3 3 3 3 3 3 3 3 3 3 3 3 3 3 3 3 3 3 3 3 3 3 3 3 3 3 3 3 3 3 3 3 3 3 3 3 3 3 3 3 3 3 3 3 3 3 3 3 3 3 3 3 3 3 3 3 3 3 3 3 3 3 3 3 3 3 3 3 3 3 3 3 3 3 3 3 3 3 </DataArray>
</Cells>
<PointData  Scalars="f_4817"> 
<DataArray  type="Float64"  Name="f_4817"  format="ascii">3.2311742677852625e-20  1.9094319886492792e-04  2.9427022709668078e-04  3.6477798026274949e-04  4.1215937008649942e-04  4.4537993037732583e-04  4.6871264488146250e-04  4.8522745610391871e-04  4.9692498365551884e-04  5.0521580016769235e-04  5.1108670356179596e-04  5.1523858576067749e-04  5.1816956636403073e-04  5.2023454576588697e-04  5.2168626910792035e-04  5.2270458784628264e-04  5.2341727561481372e-04  5.2391493226488887e-04  5.2426165648558067e-04  5.2450269060772263e-04  5.2466988963786670e-04  5.2478562711449537e-04  5.2486557840650283e-04  5.2492069921325566e-04  5.2495862828223186e-04  5.2498467922085484e-04  5.2500253985843747e-04  5.2501476405396070e-04  5.2502311662364336e-04  5.2502881462354904e-04  5.2503269570275467e-04  5.2503533528199615e-04  5.2503712791984736e-04  5.2503834368230367e-04  5.2503916710899042e-04  5.2503972409200959e-04  5.2504010037917638e-04  5.2504035428660824e-04  5.2504052541643210e-04  5.2504064062416434e-04  5.2504071809631456e-04  5.2504077013195262e-04  5.2504080503700575e-04  5.2504082841212465e-04  5.2504084402666155e-04  5.2504085441047407e-04  5.2504086125342801e-04  5.2504086567369955e-04  5.2504086839618997e-04  5.2504086986869861e-04  5.2504087033394408e-04  5.2504086986869872e-04  5.2504086839619008e-04  5.2504086567369966e-04  5.2504086125342833e-04  5.2504085441047396e-04  5.2504084402666112e-04  5.2504082841212444e-04  5.2504080503700543e-04  5.2504077013195176e-04  5.2504071809631391e-04  5.2504064062416336e-04  5.2504052541643145e-04  5.2504035428660749e-04  5.2504010037917606e-04  5.2503972409200905e-04  5.2503916710898988e-04  5.2503834368230323e-04  5.2503712791984736e-04  5.2503533528199594e-04  5.2503269570275488e-04  5.2502881462354904e-04  5.2502311662364336e-04  5.2501476405396059e-04  5.2500253985843758e-04  5.2498467922085484e-04  5.2495862828223186e-04  5.2492069921325566e-04  5.2486557840650315e-04  5.2478562711449558e-04  5.2466988963786724e-04  5.2450269060772274e-04  5.2426165648558089e-04  5.2391493226488931e-04  5.2341727561481372e-04  5.2270458784628340e-04  5.2168626910792067e-04  5.2023454576588719e-04  5.1816956636403148e-04  5.1523858576067738e-04  5.1108670356179628e-04  5.0521580016769279e-04  4.9692498365551884e-04  4.8522745610391903e-04  4.6871264488146228e-04  4.4537993037732594e-04  4.1215937008649936e-04  3.6477798026274982e-04  2.9427022709668045e-04  1.9094319886492906e-04  1.6155871338926198e-20  </DataArray> 
</PointData> 
</Piece>
</UnstructuredGrid>
</VTKFile>