<?xml version="1.0"?>
<VTKFile type="UnstructuredGrid"  version="0.1"  >
<UnstructuredGrid>
<Piece  NumberOfPoints="101" NumberOfCells="100">
<Points>
<DataArray  type="Float64"  NumberOfComponents="3"  format="ascii">0 0 0  1e-07 0 0  2e-07 0 0  3e-07 0 0  4e-07 0 0  5e-07 0 0  6.000000000000001e-07 0 0  7.000000000000001e-07 0 0  8.000000000000001e-07 0 0  9.000000000000001e-07 0 0  1e-06 0 0  1.1e-06 0 0  1.2e-06 0 0  1.3e-06 0 0  1.4e-06 0 0  1.5e-06 0 0  1.6e-06 0 0  1.7e-06 0 0  1.8e-06 0 0  1.9e-06 0 0  2e-06 0 0  2.1e-06 0 0  2.2e-06 0 0  2.3e-06 0 0  2.4e-06 0 0  2.5e-06 0 0  2.600000000000001e-06 0 0  2.7e-06 0 0  2.8e-06 0 0  2.9e-06 0 0  3e-06 0 0  3.1e-06 0 0  3.2e-06 0 0  3.300000000000001e-06 0 0  3.4e-06 0 0  3.5e-06 0 0  3.6e-06 0 0  3.700000000000001e-06 0 0  3.8e-06 0 0  3.900000000000001e-06 0 0  4e-06 0 0  4.100000000000001e-06 0 0  4.2e-06 0 0  4.3e-06 0 0  4.4e-06 0 0  4.5e-06 0 0  4.6e-06 0 0  4.700000000000001e-06 0 0  4.800000000000001e-06 0 0  4.900000000000001e-06 0 0  5e-06 0 0  5.1e-06 0 0  5.200000000000001e-06 0 0  5.300000000000001e-06 0 0  5.4e-06 0 0  5.500000000000001e-06 0 0  5.600000000000001e-06 0 0  5.7e-06 0 0  5.8e-06 0 0  5.9e-06 0 0  6e-06 0 0  6.100000000000001e-06 0 0  6.2e-06 0 0  6.300000000000001e-06 0 0  6.400000000000001e-06 0 0  6.5e-06 0 0  6.600000000000001e-06 0 0  6.7e-06 0 0  6.8e-06 0 0  6.900000000000001e-06 0 0  7.000000000000001e-06 0 0  7.1e-06 0 0  7.200000000000001e-06 0 0  7.3e-06 0 0  7.400000000000001e-06 0 0  7.5e-06 0 0  7.6e-06 0 0  7.700000000000001e-06 0 0  7.800000000000002e-06 0 0  7.900000000000001e-06 0 0  8e-06 0 0  8.1e-06 0 0  8.200000000000001e-06 0 0  8.300000000000002e-06 0 0  8.400000000000001e-06 0 0  8.5e-06 0 0  8.600000000000001e-06 0 0  8.700000000000001e-06 0 0  8.8e-06 0 0  8.900000000000001e-06 0 0  9e-06 0 0  9.100000000000001e-06 0 0  9.2e-06 0 0  9.300000000000001e-06 0 0  9.400000000000001e-06 0 0  9.500000000000001e-06 0 0  9.600000000000001e-06 0 0  9.7e-06 0 0  9.800000000000001e-06 0 0  9.9e-06 0 0  1e-05 0 0  </DataArray>
</Points>
<Cells>
<DataArray  type="UInt32"  Name="connectivity"  format="ascii">0 1  1 2  2 3  3 4  4 5  5 6  6 7  7 8  8 9  9 10  10 11  11 12  12 13  13 14  14 15  15 16  16 17  17 18  18 19  19 20  20 21  21 22  22 23  23 24  24 25  25 26  26 27  27 28  28 29  29 30  30 31  31 32  32 33  33 34  34 35  35 36  36 37  37 38  38 39  39 40  40 41  41 42  42 43  43 44  44 45  45 46  46 47  47 48  48 49  49 50  50 51  51 52  52 53  53 54  54 55  55 56  56 57  57 58  58 59  59 60  60 61  61 62  62 63  63 64  64 65  65 66  66 67  67 68  68 69  69 70  70 71  71 72  72 73  73 74  74 75  75 76  76 77  77 78  78 79  79 80  80 81  81 82  82 83  83 84  84 85  85 86  86 87  87 88  88 89  89 90  90 91  91 92  92 93  93 94  94 95  95 96  96 97  97 98  98 99  99 100  </DataArray>
<DataArray  type="UInt32"  Name="offsets"  format="ascii">2 4 6 8 10 12 14 16 18 20 22 24 26 28 30 32 34 36 38 40 42 44 46 48 50 52 54 56 58 60 62 64 66 68 70 72 74 76 78 80 82 84 86 88 90 92 94 96 98 100 102 104 106 108 110 112 114 116 118 120 122 124 126 128 130 132 134 136 138 140 142 144 146 148 150 152 154 156 158 160 162 164 166 168 170 172 174 176 178 180 182 184 186 188 190 192 194 196 198 200 </DataArray>
<DataArray  type="UInt8"  Name="types"  format="ascii">3 3 3 3 3 3 3 3 3 3 3 3 3 3 3 3 3 3 3 3 3 3 3 3 3 3 3 3 3 3 3 3 3 3 3 3 3 3 3 3 3 3 3 3 3 3 3 3 3 3 3 3 3 3 3 3 3 3 3 3 3 3 3 3 3 3 3 3 3 3 3 3 3 3 3 3 3 3 3 3 3 3 3 3 3 3 3 3 3 3 3 3 3 3 3 3 3 3 3 3 </DataArray>
</Cells>
<PointData  Scalars="f_3992"> 
<DataArray  type="Float64"  Name="f_3992"  format="ascii">0.0000000000000000e+00  1.8306950713793736e-03  1.7533750942222181e-03  1.9117788146201266e-03  1.9673718623385308e-03  2.0154718590422605e-03  2.0438418299226269e-03  2.0631506735918886e-03  2.0755478421841909e-03  2.0836961886556023e-03  2.0890010668870910e-03  2.0924682307621942e-03  2.0947307095822982e-03  2.0962080442993832e-03  2.0971724467226489e-03  2.0978020772515955e-03  2.0982131267782765e-03  2.0984814824428614e-03  2.0986566784730342e-03  2.0987710556057706e-03  2.0988457268976040e-03  2.0988944761988755e-03  2.0989263022723921e-03  2.0989470799873942e-03  2.0989606447595955e-03  2.0989695005481663e-03  2.0989752820674171e-03  2.0989790565438429e-03  2.0989815207183432e-03  2.0989831294596071e-03  2.0989841797295610e-03  2.0989848654003889e-03  2.0989853130419320e-03  2.0989856052855602e-03  2.0989857960773150e-03  2.0989859206359670e-03  2.0989860019541345e-03  2.0989860550425601e-03  2.0989860897009777e-03  2.0989861123270823e-03  2.0989861270974855e-03  2.0989861367386935e-03  2.0989861430304093e-03  2.0989861471340326e-03  2.0989861498070658e-03  2.0989861515429311e-03  2.0989861526620546e-03  2.0989861533710196e-03  2.0989861538006950e-03  2.0989861540303967e-03  2.0989861541025260e-03  2.0989861540303967e-03  2.0989861538006954e-03  2.0989861533710187e-03  2.0989861526620546e-03  2.0989861515429303e-03  2.0989861498070662e-03  2.0989861471340326e-03  2.0989861430304089e-03  2.0989861367386930e-03  2.0989861270974837e-03  2.0989861123270814e-03  2.0989860897009768e-03  2.0989860550425597e-03  2.0989860019541336e-03  2.0989859206359670e-03  2.0989857960773141e-03  2.0989856052855589e-03  2.0989853130419316e-03  2.0989848654003889e-03  2.0989841797295601e-03  2.0989831294596093e-03  2.0989815207183441e-03  2.0989790565438407e-03  2.0989752820674184e-03  2.0989695005481650e-03  2.0989606447595964e-03  2.0989470799873942e-03  2.0989263022723921e-03  2.0988944761988764e-03  2.0988457268976040e-03  2.0987710556057701e-03  2.0986566784730368e-03  2.0984814824428610e-03  2.0982131267782774e-03  2.0978020772515959e-03  2.0971724467226511e-03  2.0962080442993828e-03  2.0947307095822991e-03  2.0924682307621933e-03  2.0890010668870927e-03  2.0836961886556023e-03  2.0755478421841914e-03  2.0631506735918886e-03  2.0438418299226269e-03  2.0154718590422605e-03  1.9673718623385308e-03  1.9117788146201264e-03  1.7533750942222174e-03  1.8306950713793783e-03  0.0000000000000000e+00  </DataArray> 
</PointData> 
</Piece>
</UnstructuredGrid>
</VTKFile>