<?xml version="1.0"?>
<VTKFile type="UnstructuredGrid"  version="0.1"  >
<UnstructuredGrid>
<Piece  NumberOfPoints="101" NumberOfCells="100">
<Points>
<DataArray  type="Float64"  NumberOfComponents="3"  format="ascii">0 0 0  1e-07 0 0  2e-07 0 0  3e-07 0 0  4e-07 0 0  5e-07 0 0  6.000000000000001e-07 0 0  7.000000000000001e-07 0 0  8.000000000000001e-07 0 0  9.000000000000001e-07 0 0  1e-06 0 0  1.1e-06 0 0  1.2e-06 0 0  1.3e-06 0 0  1.4e-06 0 0  1.5e-06 0 0  1.6e-06 0 0  1.7e-06 0 0  1.8e-06 0 0  1.9e-06 0 0  2e-06 0 0  2.1e-06 0 0  2.2e-06 0 0  2.3e-06 0 0  2.4e-06 0 0  2.5e-06 0 0  2.600000000000001e-06 0 0  2.7e-06 0 0  2.8e-06 0 0  2.9e-06 0 0  3e-06 0 0  3.1e-06 0 0  3.2e-06 0 0  3.300000000000001e-06 0 0  3.4e-06 0 0  3.5e-06 0 0  3.6e-06 0 0  3.700000000000001e-06 0 0  3.8e-06 0 0  3.900000000000001e-06 0 0  4e-06 0 0  4.100000000000001e-06 0 0  4.2e-06 0 0  4.3e-06 0 0  4.4e-06 0 0  4.5e-06 0 0  4.6e-06 0 0  4.700000000000001e-06 0 0  4.800000000000001e-06 0 0  4.900000000000001e-06 0 0  5e-06 0 0  5.1e-06 0 0  5.200000000000001e-06 0 0  5.300000000000001e-06 0 0  5.4e-06 0 0  5.500000000000001e-06 0 0  5.600000000000001e-06 0 0  5.7e-06 0 0  5.8e-06 0 0  5.9e-06 0 0  6e-06 0 0  6.100000000000001e-06 0 0  6.2e-06 0 0  6.300000000000001e-06 0 0  6.400000000000001e-06 0 0  6.5e-06 0 0  6.600000000000001e-06 0 0  6.7e-06 0 0  6.8e-06 0 0  6.900000000000001e-06 0 0  7.000000000000001e-06 0 0  7.1e-06 0 0  7.200000000000001e-06 0 0  7.3e-06 0 0  7.400000000000001e-06 0 0  7.5e-06 0 0  7.6e-06 0 0  7.700000000000001e-06 0 0  7.800000000000002e-06 0 0  7.900000000000001e-06 0 0  8e-06 0 0  8.1e-06 0 0  8.200000000000001e-06 0 0  8.300000000000002e-06 0 0  8.400000000000001e-06 0 0  8.5e-06 0 0  8.600000000000001e-06 0 0  8.700000000000001e-06 0 0  8.8e-06 0 0  8.900000000000001e-06 0 0  9e-06 0 0  9.100000000000001e-06 0 0  9.2e-06 0 0  9.300000000000001e-06 0 0  9.400000000000001e-06 0 0  9.500000000000001e-06 0 0  9.600000000000001e-06 0 0  9.7e-06 0 0  9.800000000000001e-06 0 0  9.9e-06 0 0  1e-05 0 0  </DataArray>
</Points>
<Cells>
<DataArray  type="UInt32"  Name="connectivity"  format="ascii">0 1  1 2  2 3  3 4  4 5  5 6  6 7  7 8  8 9  9 10  10 11  11 12  12 13  13 14  14 15  15 16  16 17  17 18  18 19  19 20  20 21  21 22  22 23  23 24  24 25  25 26  26 27  27 28  28 29  29 30  30 31  31 32  32 33  33 34  34 35  35 36  36 37  37 38  38 39  39 40  40 41  41 42  42 43  43 44  44 45  45 46  46 47  47 48  48 49  49 50  50 51  51 52  52 53  53 54  54 55  55 56  56 57  57 58  58 59  59 60  60 61  61 62  62 63  63 64  64 65  65 66  66 67  67 68  68 69  69 70  70 71  71 72  72 73  73 74  74 75  75 76  76 77  77 78  78 79  79 80  80 81  81 82  82 83  83 84  84 85  85 86  86 87  87 88  88 89  89 90  90 91  91 92  92 93  93 94  94 95  95 96  96 97  97 98  98 99  99 100  </DataArray>
<DataArray  type="UInt32"  Name="offsets"  format="ascii">2 4 6 8 10 12 14 16 18 20 22 24 26 28 30 32 34 36 38 40 42 44 46 48 50 52 54 56 58 60 62 64 66 68 70 72 74 76 78 80 82 84 86 88 90 92 94 96 98 100 102 104 106 108 110 112 114 116 118 120 122 124 126 128 130 132 134 136 138 140 142 144 146 148 150 152 154 156 158 160 162 164 166 168 170 172 174 176 178 180 182 184 186 188 190 192 194 196 198 200 </DataArray>
<DataArray  type="UInt8"  Name="types"  format="ascii">3 3 3 3 3 3 3 3 3 3 3 3 3 3 3 3 3 3 3 3 3 3 3 3 3 3 3 3 3 3 3 3 3 3 3 3 3 3 3 3 3 3 3 3 3 3 3 3 3 3 3 3 3 3 3 3 3 3 3 3 3 3 3 3 3 3 3 3 3 3 3 3 3 3 3 3 3 3 3 3 3 3 3 3 3 3 3 3 3 3 3 3 3 3 3 3 3 3 3 3 </DataArray>
</Cells>
<PointData  Scalars="f_472"> 
<DataArray  type="Float64"  Name="f_472"  format="ascii">2.5849394142282100e-19  2.0143771090308129e-03  1.8613313267593498e-03  1.9938374564498675e-03  2.0239063678693056e-03  2.0585556547558633e-03  2.0774496313491434e-03  2.0903196844362848e-03  2.0974595511362962e-03  2.1007529719052217e-03  2.1012025161291593e-03  2.0997549312808889e-03  2.0971053594282655e-03  2.0937467186176385e-03  2.0899754969041307e-03  2.0859378899832802e-03  2.0816829526458412e-03  2.0772228940853675e-03  2.0726016372916568e-03  2.0679847337276461e-03  2.0638056080785911e-03  2.0610146326166187e-03  2.0616124877990108e-03  2.0694693672599685e-03  2.0927588272800740e-03  2.1451368019466976e-03  2.2640697984408673e-03  2.4912285987979104e-03  2.9480891601617663e-03  3.8476146113729536e-03  5.4663831140844181e-03  7.2298375762592454e-03  1.0607991164354274e-02  1.6203091637053579e-02  2.6067011408233382e-02  1.5107680948620644e-02  9.5983959603703137e-03  6.0861141511974531e-03  4.0971460238037223e-03  2.8944348527683828e-03  2.1611620167456039e-03  1.6825404234448729e-03  1.3383377901341961e-03  1.0607285652816480e-03  8.1943273003158318e-04  6.0840926633575767e-04  4.3233023350370674e-04  2.9512513593443399e-04  1.9507379675545857e-04  1.2592756411592830e-04  7.9975349030053021e-05  5.0245636879123520e-05  3.1348292022444771e-05  1.9471940693291604e-05  1.2061372343416098e-05  7.4580459088365226e-06  4.6065096777282164e-06  2.8431945816975760e-06  1.7540002641725679e-06  1.0816820788681217e-06  6.6688182343969178e-07  4.1104927910290947e-07  2.5330377689407685e-07  1.5606073395674568e-07  9.6127609004342893e-08  5.9197288616583707e-08  3.6446060305803683e-08  2.2433145405661078e-08  1.3804363047288398e-08  8.4922990784768170e-09  5.2229197032954502e-09  3.2112745362130660e-09  1.9738530162475100e-09  1.2128948245841294e-09  7.4507585456340944e-10  4.5755706056996586e-10  2.8090288568994774e-10  1.7239805173555941e-10  1.0577256659070501e-10  6.4875070410961549e-11  3.9778330650365357e-11  2.4382553314166174e-11  1.4940871096330337e-11  9.1524447132352901e-12  5.6048405133419682e-12  3.4312704717016477e-12  2.0999688227902764e-12  1.2848059037374748e-12  7.8583105639841379e-13  4.8049278236017160e-13  2.9370157158035119e-13  1.7946263231846179e-13  1.0961052699396846e-13  6.6901655993414794e-14  4.0779782206296523e-14  2.4780387892796617e-14  1.4939068683622356e-14  8.8141969341809463e-15  4.8841911318483752e-15  2.1713849176950925e-15  7.0529661049336707e-31  </DataArray> 
</PointData> 
</Piece>
</UnstructuredGrid>
</VTKFile>