<?xml version="1.0"?>
<VTKFile type="UnstructuredGrid"  version="0.1"  >
<UnstructuredGrid>
<Piece  NumberOfPoints="101" NumberOfCells="100">
<Points>
<DataArray  type="Float64"  NumberOfComponents="3"  format="ascii">0 0 0  1e-07 0 0  2e-07 0 0  3e-07 0 0  4e-07 0 0  5e-07 0 0  6.000000000000001e-07 0 0  7.000000000000001e-07 0 0  8.000000000000001e-07 0 0  9.000000000000001e-07 0 0  1e-06 0 0  1.1e-06 0 0  1.2e-06 0 0  1.3e-06 0 0  1.4e-06 0 0  1.5e-06 0 0  1.6e-06 0 0  1.7e-06 0 0  1.8e-06 0 0  1.9e-06 0 0  2e-06 0 0  2.1e-06 0 0  2.2e-06 0 0  2.3e-06 0 0  2.4e-06 0 0  2.5e-06 0 0  2.600000000000001e-06 0 0  2.7e-06 0 0  2.8e-06 0 0  2.9e-06 0 0  3e-06 0 0  3.1e-06 0 0  3.2e-06 0 0  3.300000000000001e-06 0 0  3.4e-06 0 0  3.5e-06 0 0  3.6e-06 0 0  3.700000000000001e-06 0 0  3.8e-06 0 0  3.900000000000001e-06 0 0  4e-06 0 0  4.100000000000001e-06 0 0  4.2e-06 0 0  4.3e-06 0 0  4.4e-06 0 0  4.5e-06 0 0  4.6e-06 0 0  4.700000000000001e-06 0 0  4.800000000000001e-06 0 0  4.900000000000001e-06 0 0  5e-06 0 0  5.1e-06 0 0  5.200000000000001e-06 0 0  5.300000000000001e-06 0 0  5.4e-06 0 0  5.500000000000001e-06 0 0  5.600000000000001e-06 0 0  5.7e-06 0 0  5.8e-06 0 0  5.9e-06 0 0  6e-06 0 0  6.100000000000001e-06 0 0  6.2e-06 0 0  6.300000000000001e-06 0 0  6.400000000000001e-06 0 0  6.5e-06 0 0  6.600000000000001e-06 0 0  6.7e-06 0 0  6.8e-06 0 0  6.900000000000001e-06 0 0  7.000000000000001e-06 0 0  7.1e-06 0 0  7.200000000000001e-06 0 0  7.3e-06 0 0  7.400000000000001e-06 0 0  7.5e-06 0 0  7.6e-06 0 0  7.700000000000001e-06 0 0  7.800000000000002e-06 0 0  7.900000000000001e-06 0 0  8e-06 0 0  8.1e-06 0 0  8.200000000000001e-06 0 0  8.300000000000002e-06 0 0  8.400000000000001e-06 0 0  8.5e-06 0 0  8.600000000000001e-06 0 0  8.700000000000001e-06 0 0  8.8e-06 0 0  8.900000000000001e-06 0 0  9e-06 0 0  9.100000000000001e-06 0 0  9.2e-06 0 0  9.300000000000001e-06 0 0  9.400000000000001e-06 0 0  9.500000000000001e-06 0 0  9.600000000000001e-06 0 0  9.7e-06 0 0  9.800000000000001e-06 0 0  9.9e-06 0 0  1e-05 0 0  </DataArray>
</Points>
<Cells>
<DataArray  type="UInt32"  Name="connectivity"  format="ascii">0 1  1 2  2 3  3 4  4 5  5 6  6 7  7 8  8 9  9 10  10 11  11 12  12 13  13 14  14 15  15 16  16 17  17 18  18 19  19 20  20 21  21 22  22 23  23 24  24 25  25 26  26 27  27 28  28 29  29 30  30 31  31 32  32 33  33 34  34 35  35 36  36 37  37 38  38 39  39 40  40 41  41 42  42 43  43 44  44 45  45 46  46 47  47 48  48 49  49 50  50 51  51 52  52 53  53 54  54 55  55 56  56 57  57 58  58 59  59 60  60 61  61 62  62 63  63 64  64 65  65 66  66 67  67 68  68 69  69 70  70 71  71 72  72 73  73 74  74 75  75 76  76 77  77 78  78 79  79 80  80 81  81 82  82 83  83 84  84 85  85 86  86 87  87 88  88 89  89 90  90 91  91 92  92 93  93 94  94 95  95 96  96 97  97 98  98 99  99 100  </DataArray>
<DataArray  type="UInt32"  Name="offsets"  format="ascii">2 4 6 8 10 12 14 16 18 20 22 24 26 28 30 32 34 36 38 40 42 44 46 48 50 52 54 56 58 60 62 64 66 68 70 72 74 76 78 80 82 84 86 88 90 92 94 96 98 100 102 104 106 108 110 112 114 116 118 120 122 124 126 128 130 132 134 136 138 140 142 144 146 148 150 152 154 156 158 160 162 164 166 168 170 172 174 176 178 180 182 184 186 188 190 192 194 196 198 200 </DataArray>
<DataArray  type="UInt8"  Name="types"  format="ascii">3 3 3 3 3 3 3 3 3 3 3 3 3 3 3 3 3 3 3 3 3 3 3 3 3 3 3 3 3 3 3 3 3 3 3 3 3 3 3 3 3 3 3 3 3 3 3 3 3 3 3 3 3 3 3 3 3 3 3 3 3 3 3 3 3 3 3 3 3 3 3 3 3 3 3 3 3 3 3 3 3 3 3 3 3 3 3 3 3 3 3 3 3 3 3 3 3 3 3 3 </DataArray>
</Cells>
<PointData  Scalars="f_967"> 
<DataArray  type="Float64"  Name="f_967"  format="ascii">1.2924697071141050e-19  2.0122667974345728e-03  1.8558252967172683e-03  1.9863997855904697e-03  2.0139132525011125e-03  2.0466758114758036e-03  2.0642024051435166e-03  2.0766625054225839e-03  2.0845274620235727e-03  2.0897343351983359e-03  2.0931150356272520e-03  2.0953279694254519e-03  2.0967722368155036e-03  2.0977166561611696e-03  2.0983345702170354e-03  2.0987397831395238e-03  2.0990064831118171e-03  2.0991831923712363e-03  2.0993016168026090e-03  2.0993824861695381e-03  2.0994393427203840e-03  2.0994810129011301e-03  2.0995132131236358e-03  2.0995395925679991e-03  2.0995624096491927e-03  2.0995829721115202e-03  2.0996019264318778e-03  2.0996194532418699e-03  2.0996354060207664e-03  2.0996494168990616e-03  2.0996609837773722e-03  2.0996695458003868e-03  2.0996745488808780e-03  2.0996754992431235e-03  2.0996720008761766e-03  2.0996637723928358e-03  2.0996506399378685e-03  2.0996325050589618e-03  2.0996092891877138e-03  2.0995808588500603e-03  2.0995469373624020e-03  2.0995070093092895e-03  2.0994602236154487e-03  2.0994052998210672e-03  2.0993404405929873e-03  2.0992632517594667e-03  2.0991706691538057e-03  2.0990588888290295e-03  2.0989232929483938e-03  2.0987583569258401e-03  2.0985575137325704e-03  2.0983129399773518e-03  2.0980152204320549e-03  2.0976528541978273e-03  2.0972116045122878e-03  2.0966737854597279e-03  2.0960177319422342e-03  2.0952178924012045e-03  2.0942461490349351e-03  2.0930750057276647e-03  2.0916830779990642e-03  2.0900627114668830e-03  2.0882283166572574e-03  2.0862216735893740e-03  2.0841073903980728e-03  2.0819464254827678e-03  2.0797422873282149e-03  2.0773696296786637e-03  2.0745286280379202e-03  2.0706807790342990e-03  2.0649570644920663e-03  2.0560509258063368e-03  2.0420384922117149e-03  2.0200917053795927e-03  1.9861931467941366e-03  1.9345356023309078e-03  1.8582114080646893e-03  1.7448860699920627e-03  1.5958420229962951e-03  1.3935639129451166e-03  1.1528588073306618e-03  8.9701892568947513e-04  7.0139846848786644e-04  7.0893619843114116e-04  7.8603275305898278e-04  1.0317854607184741e-03  1.0571697872718700e-03  1.1653569879373283e-03  1.2807502120917795e-03  1.3743998576617607e-03  1.4362314044847639e-03  1.4678968946483485e-03  1.4720612492887832e-03  1.4510622458923659e-03  1.4047213233431396e-03  1.3302812822106576e-03  1.2221131955547286e-03  1.0738747320359360e-03  8.6671389666225938e-04  5.9197216546269917e-04  0.0000000000000000e+00  </DataArray> 
</PointData> 
</Piece>
</UnstructuredGrid>
</VTKFile>