<?xml version="1.0"?>
<VTKFile type="UnstructuredGrid"  version="0.1"  >
<UnstructuredGrid>
<Piece  NumberOfPoints="101" NumberOfCells="100">
<Points>
<DataArray  type="Float64"  NumberOfComponents="3"  format="ascii">0 0 0  1e-07 0 0  2e-07 0 0  3e-07 0 0  4e-07 0 0  5e-07 0 0  6.000000000000001e-07 0 0  7.000000000000001e-07 0 0  8.000000000000001e-07 0 0  9.000000000000001e-07 0 0  1e-06 0 0  1.1e-06 0 0  1.2e-06 0 0  1.3e-06 0 0  1.4e-06 0 0  1.5e-06 0 0  1.6e-06 0 0  1.7e-06 0 0  1.8e-06 0 0  1.9e-06 0 0  2e-06 0 0  2.1e-06 0 0  2.2e-06 0 0  2.3e-06 0 0  2.4e-06 0 0  2.5e-06 0 0  2.600000000000001e-06 0 0  2.7e-06 0 0  2.8e-06 0 0  2.9e-06 0 0  3e-06 0 0  3.1e-06 0 0  3.2e-06 0 0  3.300000000000001e-06 0 0  3.4e-06 0 0  3.5e-06 0 0  3.6e-06 0 0  3.700000000000001e-06 0 0  3.8e-06 0 0  3.900000000000001e-06 0 0  4e-06 0 0  4.100000000000001e-06 0 0  4.2e-06 0 0  4.3e-06 0 0  4.4e-06 0 0  4.5e-06 0 0  4.6e-06 0 0  4.700000000000001e-06 0 0  4.800000000000001e-06 0 0  4.900000000000001e-06 0 0  5e-06 0 0  5.1e-06 0 0  5.200000000000001e-06 0 0  5.300000000000001e-06 0 0  5.4e-06 0 0  5.500000000000001e-06 0 0  5.600000000000001e-06 0 0  5.7e-06 0 0  5.8e-06 0 0  5.9e-06 0 0  6e-06 0 0  6.100000000000001e-06 0 0  6.2e-06 0 0  6.300000000000001e-06 0 0  6.400000000000001e-06 0 0  6.5e-06 0 0  6.600000000000001e-06 0 0  6.7e-06 0 0  6.8e-06 0 0  6.900000000000001e-06 0 0  7.000000000000001e-06 0 0  7.1e-06 0 0  7.200000000000001e-06 0 0  7.3e-06 0 0  7.400000000000001e-06 0 0  7.5e-06 0 0  7.6e-06 0 0  7.700000000000001e-06 0 0  7.800000000000002e-06 0 0  7.900000000000001e-06 0 0  8e-06 0 0  8.1e-06 0 0  8.200000000000001e-06 0 0  8.300000000000002e-06 0 0  8.400000000000001e-06 0 0  8.5e-06 0 0  8.600000000000001e-06 0 0  8.700000000000001e-06 0 0  8.8e-06 0 0  8.900000000000001e-06 0 0  9e-06 0 0  9.100000000000001e-06 0 0  9.2e-06 0 0  9.300000000000001e-06 0 0  9.400000000000001e-06 0 0  9.500000000000001e-06 0 0  9.600000000000001e-06 0 0  9.7e-06 0 0  9.800000000000001e-06 0 0  9.9e-06 0 0  1e-05 0 0  </DataArray>
</Points>
<Cells>
<DataArray  type="UInt32"  Name="connectivity"  format="ascii">0 1  1 2  2 3  3 4  4 5  5 6  6 7  7 8  8 9  9 10  10 11  11 12  12 13  13 14  14 15  15 16  16 17  17 18  18 19  19 20  20 21  21 22  22 23  23 24  24 25  25 26  26 27  27 28  28 29  29 30  30 31  31 32  32 33  33 34  34 35  35 36  36 37  37 38  38 39  39 40  40 41  41 42  42 43  43 44  44 45  45 46  46 47  47 48  48 49  49 50  50 51  51 52  52 53  53 54  54 55  55 56  56 57  57 58  58 59  59 60  60 61  61 62  62 63  63 64  64 65  65 66  66 67  67 68  68 69  69 70  70 71  71 72  72 73  73 74  74 75  75 76  76 77  77 78  78 79  79 80  80 81  81 82  82 83  83 84  84 85  85 86  86 87  87 88  88 89  89 90  90 91  91 92  92 93  93 94  94 95  95 96  96 97  97 98  98 99  99 100  </DataArray>
<DataArray  type="UInt32"  Name="offsets"  format="ascii">2 4 6 8 10 12 14 16 18 20 22 24 26 28 30 32 34 36 38 40 42 44 46 48 50 52 54 56 58 60 62 64 66 68 70 72 74 76 78 80 82 84 86 88 90 92 94 96 98 100 102 104 106 108 110 112 114 116 118 120 122 124 126 128 130 132 134 136 138 140 142 144 146 148 150 152 154 156 158 160 162 164 166 168 170 172 174 176 178 180 182 184 186 188 190 192 194 196 198 200 </DataArray>
<DataArray  type="UInt8"  Name="types"  format="ascii">3 3 3 3 3 3 3 3 3 3 3 3 3 3 3 3 3 3 3 3 3 3 3 3 3 3 3 3 3 3 3 3 3 3 3 3 3 3 3 3 3 3 3 3 3 3 3 3 3 3 3 3 3 3 3 3 3 3 3 3 3 3 3 3 3 3 3 3 3 3 3 3 3 3 3 3 3 3 3 3 3 3 3 3 3 3 3 3 3 3 3 3 3 3 3 3 3 3 3 3 </DataArray>
</Cells>
<PointData  Scalars="f_6082"> 
<DataArray  type="Float64"  Name="f_6082"  format="ascii">1.8807909613156590e-30  2.0249296557547595e-14  4.0365216138124829e-14  6.0217165085401432e-14  7.9680013875371139e-14  9.8636578523803080e-14  1.1697981650037021e-13  1.3461466625800808e-13  1.5145947797171256e-13  1.6744700355293510e-13  1.8252493508246501e-13  1.9665600114408424e-13  2.0981764894809663e-13  2.2200135564482498e-13  2.3321162416845973e-13  2.4346472695927437e-13  2.5278726493216946e-13  2.6121460931153998e-13  2.6878929087941009e-13  2.7555939538797396e-13  2.8157701606352234e-13  2.8689680499797500e-13  2.9157465547981725e-13  2.9566653757779876e-13  2.9922750007413020e-13  3.0231084354393947e-13  3.0496746226405467e-13  3.0724534685678856e-13  3.0918923517742889e-13  3.1084039589419825e-13  3.1223652737645012e-13  3.1341175374506626e-13  3.1439670006648703e-13  3.1521862949736328e-13  3.1590162652354494e-13  3.1646681211257321e-13  3.1693257846164683e-13  3.1731483294674328e-13  3.1762724276276772e-13  3.1788147351420343e-13  3.1808741661889424e-13  3.1825340179263723e-13  3.1838639207434953e-13  3.1849215982906351e-13  3.1857544293724298e-13  3.1864008095907667e-13  3.1868913147116760e-13  3.1872496703225038e-13  3.1874935336705576e-13  3.1876350938555065e-13  3.1876814960007237e-13  3.1876350938555044e-13  3.1874935336705560e-13  3.1872496703224992e-13  3.1868913147116699e-13  3.1864008095907606e-13  3.1857544293724182e-13  3.1849215982906250e-13  3.1838639207434812e-13  3.1825340179263567e-13  3.1808741661889238e-13  3.1788147351420151e-13  3.1762724276276585e-13  3.1731483294674136e-13  3.1693257846164506e-13  3.1646681211257154e-13  3.1590162652354337e-13  3.1521862949736176e-13  3.1439670006648612e-13  3.1341175374506545e-13  3.1223652737644941e-13  3.1084039589419769e-13  3.0918923517742843e-13  3.0724534685678836e-13  3.0496746226405467e-13  3.0231084354393967e-13  2.9922750007413056e-13  2.9566653757779922e-13  2.9157465547981771e-13  2.8689680499797575e-13  2.8157701606352320e-13  2.7555939538797497e-13  2.6878929087941105e-13  2.6121460931154094e-13  2.5278726493217047e-13  2.4346472695927553e-13  2.3321162416846069e-13  2.2200135564482591e-13  2.0981764894809772e-13  1.9665600114408495e-13  1.8252493508246589e-13  1.6744700355293571e-13  1.5145947797171316e-13  1.3461466625800856e-13  1.1697981650037044e-13  9.8636578523803408e-14  7.9680013875371316e-14  6.0217165085401710e-14  4.0365216138124930e-14  2.0249296557547825e-14  0.0000000000000000e+00  </DataArray> 
</PointData> 
</Piece>
</UnstructuredGrid>
</VTKFile>