<?xml version="1.0"?>
<VTKFile type="UnstructuredGrid"  version="0.1"  >
<UnstructuredGrid>
<Piece  NumberOfPoints="101" NumberOfCells="100">
<Points>
<DataArray  type="Float64"  NumberOfComponents="3"  format="ascii">0 0 0  1e-07 0 0  2e-07 0 0  3e-07 0 0  4e-07 0 0  5e-07 0 0  6.000000000000001e-07 0 0  7.000000000000001e-07 0 0  8.000000000000001e-07 0 0  9.000000000000001e-07 0 0  1e-06 0 0  1.1e-06 0 0  1.2e-06 0 0  1.3e-06 0 0  1.4e-06 0 0  1.5e-06 0 0  1.6e-06 0 0  1.7e-06 0 0  1.8e-06 0 0  1.9e-06 0 0  2e-06 0 0  2.1e-06 0 0  2.2e-06 0 0  2.3e-06 0 0  2.4e-06 0 0  2.5e-06 0 0  2.600000000000001e-06 0 0  2.7e-06 0 0  2.8e-06 0 0  2.9e-06 0 0  3e-06 0 0  3.1e-06 0 0  3.2e-06 0 0  3.300000000000001e-06 0 0  3.4e-06 0 0  3.5e-06 0 0  3.6e-06 0 0  3.700000000000001e-06 0 0  3.8e-06 0 0  3.900000000000001e-06 0 0  4e-06 0 0  4.100000000000001e-06 0 0  4.2e-06 0 0  4.3e-06 0 0  4.4e-06 0 0  4.5e-06 0 0  4.6e-06 0 0  4.700000000000001e-06 0 0  4.800000000000001e-06 0 0  4.900000000000001e-06 0 0  5e-06 0 0  5.1e-06 0 0  5.200000000000001e-06 0 0  5.300000000000001e-06 0 0  5.4e-06 0 0  5.500000000000001e-06 0 0  5.600000000000001e-06 0 0  5.7e-06 0 0  5.8e-06 0 0  5.9e-06 0 0  6e-06 0 0  6.100000000000001e-06 0 0  6.2e-06 0 0  6.300000000000001e-06 0 0  6.400000000000001e-06 0 0  6.5e-06 0 0  6.600000000000001e-06 0 0  6.7e-06 0 0  6.8e-06 0 0  6.900000000000001e-06 0 0  7.000000000000001e-06 0 0  7.1e-06 0 0  7.200000000000001e-06 0 0  7.3e-06 0 0  7.400000000000001e-06 0 0  7.5e-06 0 0  7.6e-06 0 0  7.700000000000001e-06 0 0  7.800000000000002e-06 0 0  7.900000000000001e-06 0 0  8e-06 0 0  8.1e-06 0 0  8.200000000000001e-06 0 0  8.300000000000002e-06 0 0  8.400000000000001e-06 0 0  8.5e-06 0 0  8.600000000000001e-06 0 0  8.700000000000001e-06 0 0  8.8e-06 0 0  8.900000000000001e-06 0 0  9e-06 0 0  9.100000000000001e-06 0 0  9.2e-06 0 0  9.300000000000001e-06 0 0  9.400000000000001e-06 0 0  9.500000000000001e-06 0 0  9.600000000000001e-06 0 0  9.7e-06 0 0  9.800000000000001e-06 0 0  9.9e-06 0 0  1e-05 0 0  </DataArray>
</Points>
<Cells>
<DataArray  type="UInt32"  Name="connectivity"  format="ascii">0 1  1 2  2 3  3 4  4 5  5 6  6 7  7 8  8 9  9 10  10 11  11 12  12 13  13 14  14 15  15 16  16 17  17 18  18 19  19 20  20 21  21 22  22 23  23 24  24 25  25 26  26 27  27 28  28 29  29 30  30 31  31 32  32 33  33 34  34 35  35 36  36 37  37 38  38 39  39 40  40 41  41 42  42 43  43 44  44 45  45 46  46 47  47 48  48 49  49 50  50 51  51 52  52 53  53 54  54 55  55 56  56 57  57 58  58 59  59 60  60 61  61 62  62 63  63 64  64 65  65 66  66 67  67 68  68 69  69 70  70 71  71 72  72 73  73 74  74 75  75 76  76 77  77 78  78 79  79 80  80 81  81 82  82 83  83 84  84 85  85 86  86 87  87 88  88 89  89 90  90 91  91 92  92 93  93 94  94 95  95 96  96 97  97 98  98 99  99 100  </DataArray>
<DataArray  type="UInt32"  Name="offsets"  format="ascii">2 4 6 8 10 12 14 16 18 20 22 24 26 28 30 32 34 36 38 40 42 44 46 48 50 52 54 56 58 60 62 64 66 68 70 72 74 76 78 80 82 84 86 88 90 92 94 96 98 100 102 104 106 108 110 112 114 116 118 120 122 124 126 128 130 132 134 136 138 140 142 144 146 148 150 152 154 156 158 160 162 164 166 168 170 172 174 176 178 180 182 184 186 188 190 192 194 196 198 200 </DataArray>
<DataArray  type="UInt8"  Name="types"  format="ascii">3 3 3 3 3 3 3 3 3 3 3 3 3 3 3 3 3 3 3 3 3 3 3 3 3 3 3 3 3 3 3 3 3 3 3 3 3 3 3 3 3 3 3 3 3 3 3 3 3 3 3 3 3 3 3 3 3 3 3 3 3 3 3 3 3 3 3 3 3 3 3 3 3 3 3 3 3 3 3 3 3 3 3 3 3 3 3 3 3 3 3 3 3 3 3 3 3 3 3 3 </DataArray>
</Cells>
<PointData  Scalars="f_4377"> 
<DataArray  type="Float64"  Name="f_4377"  format="ascii">-1.2924697071141050e-19  1.4562859342165438e-03  1.5528151793117047e-03  1.7209311819420849e-03  1.7973567773085051e-03  1.8534230870618223e-03  1.8879197199224290e-03  1.9109007472840494e-03  1.9258055958772356e-03  1.9356054759213444e-03  1.9420229641318940e-03  1.9462355678719263e-03  1.9489990215586083e-03  1.9508124307592303e-03  1.9520021385656837e-03  1.9527825870208437e-03  1.9532944586433316e-03  1.9536301173273653e-03  1.9538501801383899e-03  1.9539944280949641e-03  1.9540889619955502e-03  1.9541509037158213e-03  1.9541914825522383e-03  1.9542180616299695e-03  1.9542354679745150e-03  1.9542468653798192e-03  1.9542543270917351e-03  1.9542592114583949e-03  1.9542624082802746e-03  1.9542645003299652e-03  1.9542658692301026e-03  1.9542667648432426e-03  1.9542673507393750e-03  1.9542677339828007e-03  1.9542679846427575e-03  1.9542681485708734e-03  1.9542682557676934e-03  1.9542683258601868e-03  1.9542683716872655e-03  1.9542684016465302e-03  1.9542684212299891e-03  1.9542684340289112e-03  1.9542684423912125e-03  1.9542684478514281e-03  1.9542684514118527e-03  1.9542684537262401e-03  1.9542684552196648e-03  1.9542684561664869e-03  1.9542684567406847e-03  1.9542684570477893e-03  1.9542684571442460e-03  1.9542684570477897e-03  1.9542684567406855e-03  1.9542684561664864e-03  1.9542684552196652e-03  1.9542684537262409e-03  1.9542684514118522e-03  1.9542684478514277e-03  1.9542684423912112e-03  1.9542684340289108e-03  1.9542684212299883e-03  1.9542684016465284e-03  1.9542683716872651e-03  1.9542683258601855e-03  1.9542682557676934e-03  1.9542681485708725e-03  1.9542679846427584e-03  1.9542677339827986e-03  1.9542673507393755e-03  1.9542667648432431e-03  1.9542658692301013e-03  1.9542645003299661e-03  1.9542624082802751e-03  1.9542592114583949e-03  1.9542543270917351e-03  1.9542468653798201e-03  1.9542354679745158e-03  1.9542180616299691e-03  1.9541914825522387e-03  1.9541509037158213e-03  1.9540889619955506e-03  1.9539944280949650e-03  1.9538501801383908e-03  1.9536301173273662e-03  1.9532944586433320e-03  1.9527825870208444e-03  1.9520021385656841e-03  1.9508124307592307e-03  1.9489990215586096e-03  1.9462355678719259e-03  1.9420229641318953e-03  1.9356054759213444e-03  1.9258055958772358e-03  1.9109007472840496e-03  1.8879197199224286e-03  1.8534230870618225e-03  1.7973567773085040e-03  1.7209311819420866e-03  1.5528151793117030e-03  1.4562859342165484e-03  -1.2924697071140959e-19  </DataArray> 
</PointData> 
</Piece>
</UnstructuredGrid>
</VTKFile>