<?xml version="1.0"?>
<VTKFile type="UnstructuredGrid"  version="0.1"  >
<UnstructuredGrid>
<Piece  NumberOfPoints="101" NumberOfCells="100">
<Points>
<DataArray  type="Float64"  NumberOfComponents="3"  format="ascii">0 0 0  1e-07 0 0  2e-07 0 0  3e-07 0 0  4e-07 0 0  5e-07 0 0  6.000000000000001e-07 0 0  7.000000000000001e-07 0 0  8.000000000000001e-07 0 0  9.000000000000001e-07 0 0  1e-06 0 0  1.1e-06 0 0  1.2e-06 0 0  1.3e-06 0 0  1.4e-06 0 0  1.5e-06 0 0  1.6e-06 0 0  1.7e-06 0 0  1.8e-06 0 0  1.9e-06 0 0  2e-06 0 0  2.1e-06 0 0  2.2e-06 0 0  2.3e-06 0 0  2.4e-06 0 0  2.5e-06 0 0  2.600000000000001e-06 0 0  2.7e-06 0 0  2.8e-06 0 0  2.9e-06 0 0  3e-06 0 0  3.1e-06 0 0  3.2e-06 0 0  3.300000000000001e-06 0 0  3.4e-06 0 0  3.5e-06 0 0  3.6e-06 0 0  3.700000000000001e-06 0 0  3.8e-06 0 0  3.900000000000001e-06 0 0  4e-06 0 0  4.100000000000001e-06 0 0  4.2e-06 0 0  4.3e-06 0 0  4.4e-06 0 0  4.5e-06 0 0  4.6e-06 0 0  4.700000000000001e-06 0 0  4.800000000000001e-06 0 0  4.900000000000001e-06 0 0  5e-06 0 0  5.1e-06 0 0  5.200000000000001e-06 0 0  5.300000000000001e-06 0 0  5.4e-06 0 0  5.500000000000001e-06 0 0  5.600000000000001e-06 0 0  5.7e-06 0 0  5.8e-06 0 0  5.9e-06 0 0  6e-06 0 0  6.100000000000001e-06 0 0  6.2e-06 0 0  6.300000000000001e-06 0 0  6.400000000000001e-06 0 0  6.5e-06 0 0  6.600000000000001e-06 0 0  6.7e-06 0 0  6.8e-06 0 0  6.900000000000001e-06 0 0  7.000000000000001e-06 0 0  7.1e-06 0 0  7.200000000000001e-06 0 0  7.3e-06 0 0  7.400000000000001e-06 0 0  7.5e-06 0 0  7.6e-06 0 0  7.700000000000001e-06 0 0  7.800000000000002e-06 0 0  7.900000000000001e-06 0 0  8e-06 0 0  8.1e-06 0 0  8.200000000000001e-06 0 0  8.300000000000002e-06 0 0  8.400000000000001e-06 0 0  8.5e-06 0 0  8.600000000000001e-06 0 0  8.700000000000001e-06 0 0  8.8e-06 0 0  8.900000000000001e-06 0 0  9e-06 0 0  9.100000000000001e-06 0 0  9.2e-06 0 0  9.300000000000001e-06 0 0  9.400000000000001e-06 0 0  9.500000000000001e-06 0 0  9.600000000000001e-06 0 0  9.7e-06 0 0  9.800000000000001e-06 0 0  9.9e-06 0 0  1e-05 0 0  </DataArray>
</Points>
<Cells>
<DataArray  type="UInt32"  Name="connectivity"  format="ascii">0 1  1 2  2 3  3 4  4 5  5 6  6 7  7 8  8 9  9 10  10 11  11 12  12 13  13 14  14 15  15 16  16 17  17 18  18 19  19 20  20 21  21 22  22 23  23 24  24 25  25 26  26 27  27 28  28 29  29 30  30 31  31 32  32 33  33 34  34 35  35 36  36 37  37 38  38 39  39 40  40 41  41 42  42 43  43 44  44 45  45 46  46 47  47 48  48 49  49 50  50 51  51 52  52 53  53 54  54 55  55 56  56 57  57 58  58 59  59 60  60 61  61 62  62 63  63 64  64 65  65 66  66 67  67 68  68 69  69 70  70 71  71 72  72 73  73 74  74 75  75 76  76 77  77 78  78 79  79 80  80 81  81 82  82 83  83 84  84 85  85 86  86 87  87 88  88 89  89 90  90 91  91 92  92 93  93 94  94 95  95 96  96 97  97 98  98 99  99 100  </DataArray>
<DataArray  type="UInt32"  Name="offsets"  format="ascii">2 4 6 8 10 12 14 16 18 20 22 24 26 28 30 32 34 36 38 40 42 44 46 48 50 52 54 56 58 60 62 64 66 68 70 72 74 76 78 80 82 84 86 88 90 92 94 96 98 100 102 104 106 108 110 112 114 116 118 120 122 124 126 128 130 132 134 136 138 140 142 144 146 148 150 152 154 156 158 160 162 164 166 168 170 172 174 176 178 180 182 184 186 188 190 192 194 196 198 200 </DataArray>
<DataArray  type="UInt8"  Name="types"  format="ascii">3 3 3 3 3 3 3 3 3 3 3 3 3 3 3 3 3 3 3 3 3 3 3 3 3 3 3 3 3 3 3 3 3 3 3 3 3 3 3 3 3 3 3 3 3 3 3 3 3 3 3 3 3 3 3 3 3 3 3 3 3 3 3 3 3 3 3 3 3 3 3 3 3 3 3 3 3 3 3 3 3 3 3 3 3 3 3 3 3 3 3 3 3 3 3 3 3 3 3 3 </DataArray>
</Cells>
<PointData  Scalars="f_5972"> 
<DataArray  type="Float64"  Name="f_5972"  format="ascii">0.0000000000000000e+00  1.9048578384897919e-13  3.7957886739313419e-13  5.6591904226008498e-13  7.4820973538682086e-13  9.2524653925405986e-13  1.0959420250928270e-12  1.2593459589674757e-12  1.4146603089870903e-12  1.5612487234027814e-12  1.6986404519584488e-12  1.8265289560070031e-12  1.9447656892954609e-12  2.0533497182361189e-12  2.1524139804207819e-12  2.2422090508856990e-12  2.3230852997760587e-12  2.3954742890774255e-12  2.4598701792402508e-12  2.5168118096507286e-12  2.5668659912415912e-12  2.6106124157713762e-12  2.6486304538029928e-12  2.6814879897632491e-12  2.7097323332224323e-12  2.7338831542233357e-12  2.7544273187675225e-12  2.7718154484970851e-12  2.7864599950099548e-12  2.7987346020482478e-12  2.8089745253961384e-12  2.8174778878737481e-12  2.8245075624839623e-12  2.8302934979206978e-12  2.8350353249565929e-12  2.8389051077563228e-12  2.8420501293774516e-12  2.8445956244893163e-12  2.8466473938887823e-12  2.8482942542586729e-12  2.8496102925940849e-12  2.8506569078053325e-12  2.8514846323289282e-12  2.8521347343708066e-12  2.8526406069556347e-12  2.8530289535732726e-12  2.8533207822090776e-12  2.8535322202133008e-12  2.8536751620740715e-12  2.8537577609444599e-12  2.8537847729402644e-12  2.8537577609444603e-12  2.8536751620740703e-12  2.8535322202132968e-12  2.8533207822090744e-12  2.8530289535732642e-12  2.8526406069556279e-12  2.8521347343707965e-12  2.8514846323289165e-12  2.8506569078053188e-12  2.8496102925940676e-12  2.8482942542586564e-12  2.8466473938887657e-12  2.8445956244892981e-12  2.8420501293774374e-12  2.8389051077563083e-12  2.8350353249565808e-12  2.8302934979206853e-12  2.8245075624839530e-12  2.8174778878737425e-12  2.8089745253961320e-12  2.7987346020482450e-12  2.7864599950099524e-12  2.7718154484970835e-12  2.7544273187675205e-12  2.7338831542233377e-12  2.7097323332224343e-12  2.6814879897632532e-12  2.6486304538029968e-12  2.6106124157713815e-12  2.5668659912416001e-12  2.5168118096507363e-12  2.4598701792402601e-12  2.3954742890774344e-12  2.3230852997760684e-12  2.2422090508857091e-12  2.1524139804207920e-12  2.0533497182361273e-12  1.9447656892954698e-12  1.8265289560070091e-12  1.6986404519584569e-12  1.5612487234027864e-12  1.4146603089870961e-12  1.2593459589674797e-12  1.0959420250928294e-12  9.2524653925406288e-13  7.4820973538682238e-13  5.6591904226008710e-13  3.7957886739313495e-13  1.9048578384898108e-13  6.0185310762100661e-29  </DataArray> 
</PointData> 
</Piece>
</UnstructuredGrid>
</VTKFile>