<?xml version="1.0"?>
<VTKFile type="UnstructuredGrid"  version="0.1"  >
<UnstructuredGrid>
<Piece  NumberOfPoints="101" NumberOfCells="100">
<Points>
<DataArray  type="Float64"  NumberOfComponents="3"  format="ascii">0 0 0  1e-07 0 0  2e-07 0 0  3e-07 0 0  4e-07 0 0  5e-07 0 0  6.000000000000001e-07 0 0  7.000000000000001e-07 0 0  8.000000000000001e-07 0 0  9.000000000000001e-07 0 0  1e-06 0 0  1.1e-06 0 0  1.2e-06 0 0  1.3e-06 0 0  1.4e-06 0 0  1.5e-06 0 0  1.6e-06 0 0  1.7e-06 0 0  1.8e-06 0 0  1.9e-06 0 0  2e-06 0 0  2.1e-06 0 0  2.2e-06 0 0  2.3e-06 0 0  2.4e-06 0 0  2.5e-06 0 0  2.600000000000001e-06 0 0  2.7e-06 0 0  2.8e-06 0 0  2.9e-06 0 0  3e-06 0 0  3.1e-06 0 0  3.2e-06 0 0  3.300000000000001e-06 0 0  3.4e-06 0 0  3.5e-06 0 0  3.6e-06 0 0  3.700000000000001e-06 0 0  3.8e-06 0 0  3.900000000000001e-06 0 0  4e-06 0 0  4.100000000000001e-06 0 0  4.2e-06 0 0  4.3e-06 0 0  4.4e-06 0 0  4.5e-06 0 0  4.6e-06 0 0  4.700000000000001e-06 0 0  4.800000000000001e-06 0 0  4.900000000000001e-06 0 0  5e-06 0 0  5.1e-06 0 0  5.200000000000001e-06 0 0  5.300000000000001e-06 0 0  5.4e-06 0 0  5.500000000000001e-06 0 0  5.600000000000001e-06 0 0  5.7e-06 0 0  5.8e-06 0 0  5.9e-06 0 0  6e-06 0 0  6.100000000000001e-06 0 0  6.2e-06 0 0  6.300000000000001e-06 0 0  6.400000000000001e-06 0 0  6.5e-06 0 0  6.600000000000001e-06 0 0  6.7e-06 0 0  6.8e-06 0 0  6.900000000000001e-06 0 0  7.000000000000001e-06 0 0  7.1e-06 0 0  7.200000000000001e-06 0 0  7.3e-06 0 0  7.400000000000001e-06 0 0  7.5e-06 0 0  7.6e-06 0 0  7.700000000000001e-06 0 0  7.800000000000002e-06 0 0  7.900000000000001e-06 0 0  8e-06 0 0  8.1e-06 0 0  8.200000000000001e-06 0 0  8.300000000000002e-06 0 0  8.400000000000001e-06 0 0  8.5e-06 0 0  8.600000000000001e-06 0 0  8.700000000000001e-06 0 0  8.8e-06 0 0  8.900000000000001e-06 0 0  9e-06 0 0  9.100000000000001e-06 0 0  9.2e-06 0 0  9.300000000000001e-06 0 0  9.400000000000001e-06 0 0  9.500000000000001e-06 0 0  9.600000000000001e-06 0 0  9.7e-06 0 0  9.800000000000001e-06 0 0  9.9e-06 0 0  1e-05 0 0  </DataArray>
</Points>
<Cells>
<DataArray  type="UInt32"  Name="connectivity"  format="ascii">0 1  1 2  2 3  3 4  4 5  5 6  6 7  7 8  8 9  9 10  10 11  11 12  12 13  13 14  14 15  15 16  16 17  17 18  18 19  19 20  20 21  21 22  22 23  23 24  24 25  25 26  26 27  27 28  28 29  29 30  30 31  31 32  32 33  33 34  34 35  35 36  36 37  37 38  38 39  39 40  40 41  41 42  42 43  43 44  44 45  45 46  46 47  47 48  48 49  49 50  50 51  51 52  52 53  53 54  54 55  55 56  56 57  57 58  58 59  59 60  60 61  61 62  62 63  63 64  64 65  65 66  66 67  67 68  68 69  69 70  70 71  71 72  72 73  73 74  74 75  75 76  76 77  77 78  78 79  79 80  80 81  81 82  82 83  83 84  84 85  85 86  86 87  87 88  88 89  89 90  90 91  91 92  92 93  93 94  94 95  95 96  96 97  97 98  98 99  99 100  </DataArray>
<DataArray  type="UInt32"  Name="offsets"  format="ascii">2 4 6 8 10 12 14 16 18 20 22 24 26 28 30 32 34 36 38 40 42 44 46 48 50 52 54 56 58 60 62 64 66 68 70 72 74 76 78 80 82 84 86 88 90 92 94 96 98 100 102 104 106 108 110 112 114 116 118 120 122 124 126 128 130 132 134 136 138 140 142 144 146 148 150 152 154 156 158 160 162 164 166 168 170 172 174 176 178 180 182 184 186 188 190 192 194 196 198 200 </DataArray>
<DataArray  type="UInt8"  Name="types"  format="ascii">3 3 3 3 3 3 3 3 3 3 3 3 3 3 3 3 3 3 3 3 3 3 3 3 3 3 3 3 3 3 3 3 3 3 3 3 3 3 3 3 3 3 3 3 3 3 3 3 3 3 3 3 3 3 3 3 3 3 3 3 3 3 3 3 3 3 3 3 3 3 3 3 3 3 3 3 3 3 3 3 3 3 3 3 3 3 3 3 3 3 3 3 3 3 3 3 3 3 3 3 </DataArray>
</Cells>
<PointData  Scalars="f_1682"> 
<DataArray  type="Float64"  Name="f_1682"  format="ascii">1.2924697071141050e-19  1.8325544777854947e-03  1.7541278342489604e-03  1.9124864601466037e-03  1.9679681223351299e-03  2.0160322885067099e-03  2.0443749833426029e-03  2.0636690006179564e-03  2.0760564644793146e-03  2.0841987835748606e-03  2.0894997673283804e-03  2.0929644277651416e-03  2.0952252816771673e-03  2.0967015604258506e-03  2.0976652743072035e-03  2.0982944550781866e-03  2.0987052101822112e-03  2.0989733727053836e-03  2.0991484417192826e-03  2.0992627350791639e-03  2.0993373509262401e-03  2.0993860633791977e-03  2.0994178648436538e-03  2.0994386260303932e-03  2.0994521796301332e-03  2.0994610278123435e-03  2.0994668041124792e-03  2.0994705749776501e-03  2.0994730366311089e-03  2.0994746435957865e-03  2.0994756926010862e-03  2.0994763773615689e-03  2.0994768243391944e-03  2.0994771160906703e-03  2.0994773065096729e-03  2.0994774307776325e-03  2.0994775118599830e-03  2.0994775647471329e-03  2.0994775992230416e-03  2.0994776216725825e-03  2.0994776362613229e-03  2.0994776457056120e-03  2.0994776517751614e-03  2.0994776556209462e-03  2.0994776579890445e-03  2.0994776593599297e-03  2.0994776600390063e-03  2.0994776602152022e-03  2.0994776599984888e-03  2.0994776594434011e-03  2.0994776585629943e-03  2.0994776573359550e-03  2.0994776557083463e-03  2.0994776535904307e-03  2.0994776508482245e-03  2.0994776472883251e-03  2.0994776426334549e-03  2.0994776364842769e-03  2.0994776282606256e-03  2.0994776171112837e-03  2.0994776017756634e-03  2.0994775803716763e-03  2.0994775500703610e-03  2.0994775065967045e-03  2.0994774434638609e-03  2.0994773507984825e-03  2.0994772135392251e-03  2.0994770086745092e-03  2.0994767010081442e-03  2.0994762366694968e-03  2.0994755331685505e-03  2.0994744641584517e-03  2.0994728360913808e-03  2.0994703524575479e-03  2.0994665590054295e-03  2.0994607598313966e-03  2.0994518888501176e-03  2.0994383129217665e-03  2.0994175302962667e-03  2.0993857087148082e-03  2.0993369778994626e-03  2.0992623458672543e-03  2.0991480389020247e-03  2.0989729592368086e-03  2.0987047893562300e-03  2.0982940304901487e-03  2.0976648498129517e-03  2.0967011400992290e-03  2.0952248697657608e-03  2.0929640286438808e-03  2.0894993854470877e-03  2.0841984234051072e-03  2.0760561304320460e-03  2.0636686970208601e-03  2.0443747141743653e-03  2.0160320578753851e-03  1.9679679326047666e-03  1.9124863170124011e-03  1.7541277327778053e-03  1.8325544333055190e-03  -1.2924697071140959e-19  </DataArray> 
</PointData> 
</Piece>
</UnstructuredGrid>
</VTKFile>