<?xml version="1.0"?>
<VTKFile type="UnstructuredGrid"  version="0.1"  >
<UnstructuredGrid>
<Piece  NumberOfPoints="101" NumberOfCells="100">
<Points>
<DataArray  type="Float64"  NumberOfComponents="3"  format="ascii">0 0 0  1e-07 0 0  2e-07 0 0  3e-07 0 0  4e-07 0 0  5e-07 0 0  6.000000000000001e-07 0 0  7.000000000000001e-07 0 0  8.000000000000001e-07 0 0  9.000000000000001e-07 0 0  1e-06 0 0  1.1e-06 0 0  1.2e-06 0 0  1.3e-06 0 0  1.4e-06 0 0  1.5e-06 0 0  1.6e-06 0 0  1.7e-06 0 0  1.8e-06 0 0  1.9e-06 0 0  2e-06 0 0  2.1e-06 0 0  2.2e-06 0 0  2.3e-06 0 0  2.4e-06 0 0  2.5e-06 0 0  2.600000000000001e-06 0 0  2.7e-06 0 0  2.8e-06 0 0  2.9e-06 0 0  3e-06 0 0  3.1e-06 0 0  3.2e-06 0 0  3.300000000000001e-06 0 0  3.4e-06 0 0  3.5e-06 0 0  3.6e-06 0 0  3.700000000000001e-06 0 0  3.8e-06 0 0  3.900000000000001e-06 0 0  4e-06 0 0  4.100000000000001e-06 0 0  4.2e-06 0 0  4.3e-06 0 0  4.4e-06 0 0  4.5e-06 0 0  4.6e-06 0 0  4.700000000000001e-06 0 0  4.800000000000001e-06 0 0  4.900000000000001e-06 0 0  5e-06 0 0  5.1e-06 0 0  5.200000000000001e-06 0 0  5.300000000000001e-06 0 0  5.4e-06 0 0  5.500000000000001e-06 0 0  5.600000000000001e-06 0 0  5.7e-06 0 0  5.8e-06 0 0  5.9e-06 0 0  6e-06 0 0  6.100000000000001e-06 0 0  6.2e-06 0 0  6.300000000000001e-06 0 0  6.400000000000001e-06 0 0  6.5e-06 0 0  6.600000000000001e-06 0 0  6.7e-06 0 0  6.8e-06 0 0  6.900000000000001e-06 0 0  7.000000000000001e-06 0 0  7.1e-06 0 0  7.200000000000001e-06 0 0  7.3e-06 0 0  7.400000000000001e-06 0 0  7.5e-06 0 0  7.6e-06 0 0  7.700000000000001e-06 0 0  7.800000000000002e-06 0 0  7.900000000000001e-06 0 0  8e-06 0 0  8.1e-06 0 0  8.200000000000001e-06 0 0  8.300000000000002e-06 0 0  8.400000000000001e-06 0 0  8.5e-06 0 0  8.600000000000001e-06 0 0  8.700000000000001e-06 0 0  8.8e-06 0 0  8.900000000000001e-06 0 0  9e-06 0 0  9.100000000000001e-06 0 0  9.2e-06 0 0  9.300000000000001e-06 0 0  9.400000000000001e-06 0 0  9.500000000000001e-06 0 0  9.600000000000001e-06 0 0  9.7e-06 0 0  9.800000000000001e-06 0 0  9.9e-06 0 0  1e-05 0 0  </DataArray>
</Points>
<Cells>
<DataArray  type="UInt32"  Name="connectivity"  format="ascii">0 1  1 2  2 3  3 4  4 5  5 6  6 7  7 8  8 9  9 10  10 11  11 12  12 13  13 14  14 15  15 16  16 17  17 18  18 19  19 20  20 21  21 22  22 23  23 24  24 25  25 26  26 27  27 28  28 29  29 30  30 31  31 32  32 33  33 34  34 35  35 36  36 37  37 38  38 39  39 40  40 41  41 42  42 43  43 44  44 45  45 46  46 47  47 48  48 49  49 50  50 51  51 52  52 53  53 54  54 55  55 56  56 57  57 58  58 59  59 60  60 61  61 62  62 63  63 64  64 65  65 66  66 67  67 68  68 69  69 70  70 71  71 72  72 73  73 74  74 75  75 76  76 77  77 78  78 79  79 80  80 81  81 82  82 83  83 84  84 85  85 86  86 87  87 88  88 89  89 90  90 91  91 92  92 93  93 94  94 95  95 96  96 97  97 98  98 99  99 100  </DataArray>
<DataArray  type="UInt32"  Name="offsets"  format="ascii">2 4 6 8 10 12 14 16 18 20 22 24 26 28 30 32 34 36 38 40 42 44 46 48 50 52 54 56 58 60 62 64 66 68 70 72 74 76 78 80 82 84 86 88 90 92 94 96 98 100 102 104 106 108 110 112 114 116 118 120 122 124 126 128 130 132 134 136 138 140 142 144 146 148 150 152 154 156 158 160 162 164 166 168 170 172 174 176 178 180 182 184 186 188 190 192 194 196 198 200 </DataArray>
<DataArray  type="UInt8"  Name="types"  format="ascii">3 3 3 3 3 3 3 3 3 3 3 3 3 3 3 3 3 3 3 3 3 3 3 3 3 3 3 3 3 3 3 3 3 3 3 3 3 3 3 3 3 3 3 3 3 3 3 3 3 3 3 3 3 3 3 3 3 3 3 3 3 3 3 3 3 3 3 3 3 3 3 3 3 3 3 3 3 3 3 3 3 3 3 3 3 3 3 3 3 3 3 3 3 3 3 3 3 3 3 3 </DataArray>
</Cells>
<PointData  Scalars="f_5807"> 
<DataArray  type="Float64"  Name="f_5807"  format="ascii">-9.6296497219361739e-28  5.5132558859106313e-12  1.0978224890893132e-11  1.6347989993105530e-11  2.1578303565917203e-11  2.6628751791072724e-11  3.1463729580547253e-11  3.6053185844054597e-11  4.0373115428218175e-11  4.4405791190567858e-11  4.8139745887883878e-11  5.1569527533785925e-11  5.4695262669709155e-11  5.7522069085656967e-11  6.0059362839762783e-11  6.2320104245328903e-11  6.4320024382541596e-11  6.6076868377877476e-11  6.7609684965894728e-11  6.8938184463892240e-11  7.0082179910579446e-11  7.1061119267490052e-11  7.1893710622915100e-11  7.2597637486829575e-11  7.3189357601191023e-11  7.3683976184248451e-11  7.4095183072597441e-11  7.4435242663524980e-11  7.4715025711664729e-11  7.4944072713830670e-11  7.5130679651758560e-11  7.5281998103674670e-11  7.5404143058378246e-11  7.5502303074393047e-11  7.5580848653363726e-11  7.5643435796920868e-11  7.5693102665530838e-11  7.5732358048000797e-11  7.5763260984646708e-11  7.5787491376907286e-11  7.5806411777502120e-11  7.5821120806504138e-11  7.5832498798784102e-11  7.5841246375205470e-11  7.5847916659985646e-11  7.5852941853921139e-11  7.5856654829481794e-11  7.5859306348549803e-11  7.5861078424124761e-11  7.5862094259011127e-11  7.5862425101119968e-11  7.5862094259011127e-11  7.5861078424124773e-11  7.5859306348549751e-11  7.5856654829481730e-11  7.5852941853920996e-11  7.5847916659985414e-11  7.5841246375205250e-11  7.5832498798783792e-11  7.5821120806503828e-11  7.5806411777501719e-11  7.5787491376906859e-11  7.5763260984646346e-11  7.5732358048000410e-11  7.5693102665530476e-11  7.5643435796920545e-11  7.5580848653363403e-11  7.5502303074392762e-11  7.5404143058378052e-11  7.5281998103674515e-11  7.5130679651758418e-11  7.4944072713830645e-11  7.4715025711664664e-11  7.4435242663524993e-11  7.4095183072597403e-11  7.3683976184248490e-11  7.3189357601191100e-11  7.2597637486829640e-11  7.1893710622915255e-11  7.1061119267490220e-11  7.0082179910579666e-11  6.8938184463892460e-11  6.7609684965894987e-11  6.6076868377877683e-11  6.4320024382541828e-11  6.2320104245329187e-11  6.0059362839763003e-11  5.7522069085657161e-11  5.4695262669709368e-11  5.1569527533786100e-11  4.8139745887884072e-11  4.4405791190567994e-11  4.0373115428218324e-11  3.6053185844054701e-11  3.1463729580547285e-11  2.6628751791072788e-11  2.1578303565917229e-11  1.6347989993105595e-11  1.0978224890893144e-11  5.5132558859106855e-12  0.0000000000000000e+00  </DataArray> 
</PointData> 
</Piece>
</UnstructuredGrid>
</VTKFile>