<?xml version="1.0"?>
<VTKFile type="UnstructuredGrid"  version="0.1"  >
<UnstructuredGrid>
<Piece  NumberOfPoints="101" NumberOfCells="100">
<Points>
<DataArray  type="Float64"  NumberOfComponents="3"  format="ascii">0 0 0  1e-07 0 0  2e-07 0 0  3e-07 0 0  4e-07 0 0  5e-07 0 0  6.000000000000001e-07 0 0  7.000000000000001e-07 0 0  8.000000000000001e-07 0 0  9.000000000000001e-07 0 0  1e-06 0 0  1.1e-06 0 0  1.2e-06 0 0  1.3e-06 0 0  1.4e-06 0 0  1.5e-06 0 0  1.6e-06 0 0  1.7e-06 0 0  1.8e-06 0 0  1.9e-06 0 0  2e-06 0 0  2.1e-06 0 0  2.2e-06 0 0  2.3e-06 0 0  2.4e-06 0 0  2.5e-06 0 0  2.600000000000001e-06 0 0  2.7e-06 0 0  2.8e-06 0 0  2.9e-06 0 0  3e-06 0 0  3.1e-06 0 0  3.2e-06 0 0  3.300000000000001e-06 0 0  3.4e-06 0 0  3.5e-06 0 0  3.6e-06 0 0  3.700000000000001e-06 0 0  3.8e-06 0 0  3.900000000000001e-06 0 0  4e-06 0 0  4.100000000000001e-06 0 0  4.2e-06 0 0  4.3e-06 0 0  4.4e-06 0 0  4.5e-06 0 0  4.6e-06 0 0  4.700000000000001e-06 0 0  4.800000000000001e-06 0 0  4.900000000000001e-06 0 0  5e-06 0 0  5.1e-06 0 0  5.200000000000001e-06 0 0  5.300000000000001e-06 0 0  5.4e-06 0 0  5.500000000000001e-06 0 0  5.600000000000001e-06 0 0  5.7e-06 0 0  5.8e-06 0 0  5.9e-06 0 0  6e-06 0 0  6.100000000000001e-06 0 0  6.2e-06 0 0  6.300000000000001e-06 0 0  6.400000000000001e-06 0 0  6.5e-06 0 0  6.600000000000001e-06 0 0  6.7e-06 0 0  6.8e-06 0 0  6.900000000000001e-06 0 0  7.000000000000001e-06 0 0  7.1e-06 0 0  7.200000000000001e-06 0 0  7.3e-06 0 0  7.400000000000001e-06 0 0  7.5e-06 0 0  7.6e-06 0 0  7.700000000000001e-06 0 0  7.800000000000002e-06 0 0  7.900000000000001e-06 0 0  8e-06 0 0  8.1e-06 0 0  8.200000000000001e-06 0 0  8.300000000000002e-06 0 0  8.400000000000001e-06 0 0  8.5e-06 0 0  8.600000000000001e-06 0 0  8.700000000000001e-06 0 0  8.8e-06 0 0  8.900000000000001e-06 0 0  9e-06 0 0  9.100000000000001e-06 0 0  9.2e-06 0 0  9.300000000000001e-06 0 0  9.400000000000001e-06 0 0  9.500000000000001e-06 0 0  9.600000000000001e-06 0 0  9.7e-06 0 0  9.800000000000001e-06 0 0  9.9e-06 0 0  1e-05 0 0  </DataArray>
</Points>
<Cells>
<DataArray  type="UInt32"  Name="connectivity"  format="ascii">0 1  1 2  2 3  3 4  4 5  5 6  6 7  7 8  8 9  9 10  10 11  11 12  12 13  13 14  14 15  15 16  16 17  17 18  18 19  19 20  20 21  21 22  22 23  23 24  24 25  25 26  26 27  27 28  28 29  29 30  30 31  31 32  32 33  33 34  34 35  35 36  36 37  37 38  38 39  39 40  40 41  41 42  42 43  43 44  44 45  45 46  46 47  47 48  48 49  49 50  50 51  51 52  52 53  53 54  54 55  55 56  56 57  57 58  58 59  59 60  60 61  61 62  62 63  63 64  64 65  65 66  66 67  67 68  68 69  69 70  70 71  71 72  72 73  73 74  74 75  75 76  76 77  77 78  78 79  79 80  80 81  81 82  82 83  83 84  84 85  85 86  86 87  87 88  88 89  89 90  90 91  91 92  92 93  93 94  94 95  95 96  96 97  97 98  98 99  99 100  </DataArray>
<DataArray  type="UInt32"  Name="offsets"  format="ascii">2 4 6 8 10 12 14 16 18 20 22 24 26 28 30 32 34 36 38 40 42 44 46 48 50 52 54 56 58 60 62 64 66 68 70 72 74 76 78 80 82 84 86 88 90 92 94 96 98 100 102 104 106 108 110 112 114 116 118 120 122 124 126 128 130 132 134 136 138 140 142 144 146 148 150 152 154 156 158 160 162 164 166 168 170 172 174 176 178 180 182 184 186 188 190 192 194 196 198 200 </DataArray>
<DataArray  type="UInt8"  Name="types"  format="ascii">3 3 3 3 3 3 3 3 3 3 3 3 3 3 3 3 3 3 3 3 3 3 3 3 3 3 3 3 3 3 3 3 3 3 3 3 3 3 3 3 3 3 3 3 3 3 3 3 3 3 3 3 3 3 3 3 3 3 3 3 3 3 3 3 3 3 3 3 3 3 3 3 3 3 3 3 3 3 3 3 3 3 3 3 3 3 3 3 3 3 3 3 3 3 3 3 3 3 3 3 </DataArray>
</Cells>
<PointData  Scalars="f_6247"> 
<DataArray  type="Float64"  Name="f_6247"  format="ascii">-5.8774717541114343e-32  7.0504680392762660e-16  1.4060499017888842e-15  2.0990384697946325e-15  2.7801851508953591e-15  3.4458721502846223e-15  4.0927508574294083e-15  4.7177933038248393e-15  5.3183341284556539e-15  5.8921021330868719e-15  6.4372409432405730e-15  6.9523187239952834e-15  7.4363273099136572e-15  7.8886714756675958e-15  8.3091493824930007e-15  8.6979254744175498e-15  9.0554972612712724e-15  9.3826575117856053e-15  9.6804533931009143e-15  9.9501440400075451e-15  1.0193157928383043e-14  1.0411051274559744e-14  1.0605468498629444e-14  1.0778105587773935e-14  1.0930676987575586e-14  1.1064886445450593e-14  1.1182402039553988e-14  1.1284835455366871e-14  1.1373725425226108e-14  1.1450525125827011e-14  1.1516593235959870e-14  1.1573188290669091e-14  1.1621465926699674e-14  1.1662478594729603e-14  1.1697177313151640e-14  1.1726415052498287e-14  1.1750951365423019e-14  1.1771457911069397e-14  1.1788524561605499e-14  1.1802665820010290e-14  1.1814327319663037e-14  1.1823892216159863e-14  1.1831687318765798e-14  1.1837988842117280e-14  1.1843027687691279e-14  1.1846994188932269e-14  1.1850042273804185e-14  1.1852293014135782e-14  1.1853837542826577e-14  1.1854739328256004e-14  1.1855035800644777e-14  1.1854739328255997e-14  1.1853837542826575e-14  1.1852293014135772e-14  1.1850042273804170e-14  1.1846994188932245e-14  1.1843027687691245e-14  1.1837988842117237e-14  1.1831687318765741e-14  1.1823892216159798e-14  1.1814327319662965e-14  1.1802665820010212e-14  1.1788524561605417e-14  1.1771457911069322e-14  1.1750951365422945e-14  1.1726415052498224e-14  1.1697177313151570e-14  1.1662478594729543e-14  1.1621465926699622e-14  1.1573188290669054e-14  1.1516593235959831e-14  1.1450525125826982e-14  1.1373725425226089e-14  1.1284835455366849e-14  1.1182402039553987e-14  1.1064886445450595e-14  1.0930676987575594e-14  1.0778105587773951e-14  1.0605468498629460e-14  1.0411051274559763e-14  1.0193157928383078e-14  9.9501440400075767e-15  9.6804533931009506e-15  9.3826575117856448e-15  9.0554972612713087e-15  8.6979254744175971e-15  8.3091493824930385e-15  7.8886714756676258e-15  7.4363273099136935e-15  6.9523187239953103e-15  6.4372409432406046e-15  5.8921021330868956e-15  5.3183341284556768e-15  4.7177933038248590e-15  4.0927508574294194e-15  3.4458721502846369e-15  2.7801851508953658e-15  2.0990384697946431e-15  1.4060499017888877e-15  7.0504680392763478e-16  -5.8774717541113927e-32  </DataArray> 
</PointData> 
</Piece>
</UnstructuredGrid>
</VTKFile>