<?xml version="1.0"?>
<VTKFile type="UnstructuredGrid"  version="0.1"  >
<UnstructuredGrid>
<Piece  NumberOfPoints="101" NumberOfCells="100">
<Points>
<DataArray  type="Float64"  NumberOfComponents="3"  format="ascii">0 0 0  1e-07 0 0  2e-07 0 0  3e-07 0 0  4e-07 0 0  5e-07 0 0  6.000000000000001e-07 0 0  7.000000000000001e-07 0 0  8.000000000000001e-07 0 0  9.000000000000001e-07 0 0  1e-06 0 0  1.1e-06 0 0  1.2e-06 0 0  1.3e-06 0 0  1.4e-06 0 0  1.5e-06 0 0  1.6e-06 0 0  1.7e-06 0 0  1.8e-06 0 0  1.9e-06 0 0  2e-06 0 0  2.1e-06 0 0  2.2e-06 0 0  2.3e-06 0 0  2.4e-06 0 0  2.5e-06 0 0  2.600000000000001e-06 0 0  2.7e-06 0 0  2.8e-06 0 0  2.9e-06 0 0  3e-06 0 0  3.1e-06 0 0  3.2e-06 0 0  3.300000000000001e-06 0 0  3.4e-06 0 0  3.5e-06 0 0  3.6e-06 0 0  3.700000000000001e-06 0 0  3.8e-06 0 0  3.900000000000001e-06 0 0  4e-06 0 0  4.100000000000001e-06 0 0  4.2e-06 0 0  4.3e-06 0 0  4.4e-06 0 0  4.5e-06 0 0  4.6e-06 0 0  4.700000000000001e-06 0 0  4.800000000000001e-06 0 0  4.900000000000001e-06 0 0  5e-06 0 0  5.1e-06 0 0  5.200000000000001e-06 0 0  5.300000000000001e-06 0 0  5.4e-06 0 0  5.500000000000001e-06 0 0  5.600000000000001e-06 0 0  5.7e-06 0 0  5.8e-06 0 0  5.9e-06 0 0  6e-06 0 0  6.100000000000001e-06 0 0  6.2e-06 0 0  6.300000000000001e-06 0 0  6.400000000000001e-06 0 0  6.5e-06 0 0  6.600000000000001e-06 0 0  6.7e-06 0 0  6.8e-06 0 0  6.900000000000001e-06 0 0  7.000000000000001e-06 0 0  7.1e-06 0 0  7.200000000000001e-06 0 0  7.3e-06 0 0  7.400000000000001e-06 0 0  7.5e-06 0 0  7.6e-06 0 0  7.700000000000001e-06 0 0  7.800000000000002e-06 0 0  7.900000000000001e-06 0 0  8e-06 0 0  8.1e-06 0 0  8.200000000000001e-06 0 0  8.300000000000002e-06 0 0  8.400000000000001e-06 0 0  8.5e-06 0 0  8.600000000000001e-06 0 0  8.700000000000001e-06 0 0  8.8e-06 0 0  8.900000000000001e-06 0 0  9e-06 0 0  9.100000000000001e-06 0 0  9.2e-06 0 0  9.300000000000001e-06 0 0  9.400000000000001e-06 0 0  9.500000000000001e-06 0 0  9.600000000000001e-06 0 0  9.7e-06 0 0  9.800000000000001e-06 0 0  9.9e-06 0 0  1e-05 0 0  </DataArray>
</Points>
<Cells>
<DataArray  type="UInt32"  Name="connectivity"  format="ascii">0 1  1 2  2 3  3 4  4 5  5 6  6 7  7 8  8 9  9 10  10 11  11 12  12 13  13 14  14 15  15 16  16 17  17 18  18 19  19 20  20 21  21 22  22 23  23 24  24 25  25 26  26 27  27 28  28 29  29 30  30 31  31 32  32 33  33 34  34 35  35 36  36 37  37 38  38 39  39 40  40 41  41 42  42 43  43 44  44 45  45 46  46 47  47 48  48 49  49 50  50 51  51 52  52 53  53 54  54 55  55 56  56 57  57 58  58 59  59 60  60 61  61 62  62 63  63 64  64 65  65 66  66 67  67 68  68 69  69 70  70 71  71 72  72 73  73 74  74 75  75 76  76 77  77 78  78 79  79 80  80 81  81 82  82 83  83 84  84 85  85 86  86 87  87 88  88 89  89 90  90 91  91 92  92 93  93 94  94 95  95 96  96 97  97 98  98 99  99 100  </DataArray>
<DataArray  type="UInt32"  Name="offsets"  format="ascii">2 4 6 8 10 12 14 16 18 20 22 24 26 28 30 32 34 36 38 40 42 44 46 48 50 52 54 56 58 60 62 64 66 68 70 72 74 76 78 80 82 84 86 88 90 92 94 96 98 100 102 104 106 108 110 112 114 116 118 120 122 124 126 128 130 132 134 136 138 140 142 144 146 148 150 152 154 156 158 160 162 164 166 168 170 172 174 176 178 180 182 184 186 188 190 192 194 196 198 200 </DataArray>
<DataArray  type="UInt8"  Name="types"  format="ascii">3 3 3 3 3 3 3 3 3 3 3 3 3 3 3 3 3 3 3 3 3 3 3 3 3 3 3 3 3 3 3 3 3 3 3 3 3 3 3 3 3 3 3 3 3 3 3 3 3 3 3 3 3 3 3 3 3 3 3 3 3 3 3 3 3 3 3 3 3 3 3 3 3 3 3 3 3 3 3 3 3 3 3 3 3 3 3 3 3 3 3 3 3 3 3 3 3 3 3 3 </DataArray>
</Cells>
<PointData  Scalars="f_5862"> 
<DataArray  type="Float64"  Name="f_5862"  format="ascii">1.2037062152420217e-28  1.7952922999047416e-12  3.5758343441957518e-12  5.3272661857086297e-12  7.0359899272837747e-12  8.6895056704702678e-12  1.0276696991410920e-11  1.1788054761763583e-11  1.3215832245236056e-11  1.4554128750371118e-11  1.5798903334735750e-11  1.6947923807212531e-11  1.8000659312486584e-11  1.8958126947917832e-11  1.9822704098751952e-11  2.0597918514131317e-11  2.1288227687748644e-11  2.1898798008145177e-11  2.2435292586514567e-11  2.2903674841329389e-11  2.3310032992932311e-11  2.3660428745143641e-11  2.3960771719083700e-11  2.4216719734860155e-11  2.4433603853002938e-11  2.4616376202807050e-11  2.4769578028163391e-11  2.4897325044645619e-11  2.5003307085240368e-11  2.5090799071594476e-11  2.5162680537887735e-11  2.5221461213175796e-11  2.5269310498202969e-11  2.5308089023546019e-11  2.5339380823592110e-11  2.5364524987871892e-11  2.5384645946145660e-11  2.5400681799826812e-11  2.5413410327260962e-11  2.5423472464490337e-11  2.5431393198954139e-11  2.5437599914957072e-11  2.5442438301228706e-11  2.5446185977252021e-11  2.5449064020877776e-11  2.5451246589302192e-11  2.5452868822506804e-11  2.5454033205893088e-11  2.5454814549677492e-11  2.5455263718677720e-11  2.5455410218970184e-11  2.5455263718677707e-11  2.5454814549677489e-11  2.5454033205893069e-11  2.5452868822506785e-11  2.5451246589302147e-11  2.5449064020877705e-11  2.5446185977251944e-11  2.5442438301228599e-11  2.5437599914956962e-11  2.5431393198954000e-11  2.5423472464490173e-11  2.5413410327260823e-11  2.5400681799826680e-11  2.5384645946145541e-11  2.5364524987871776e-11  2.5339380823592000e-11  2.5308089023545919e-11  2.5269310498202898e-11  2.5221461213175741e-11  2.5162680537887673e-11  2.5090799071594463e-11  2.5003307085240342e-11  2.4897325044645616e-11  2.4769578028163381e-11  2.4616376202807063e-11  2.4433603853002957e-11  2.4216719734860200e-11  2.3960771719083748e-11  2.3660428745143687e-11  2.3310032992932392e-11  2.2903674841329451e-11  2.2435292586514651e-11  2.1898798008145252e-11  2.1288227687748728e-11  2.0597918514131410e-11  1.9822704098752042e-11  1.8958126947917900e-11  1.8000659312486661e-11  1.6947923807212586e-11  1.5798903334735818e-11  1.4554128750371153e-11  1.3215832245236102e-11  1.1788054761763617e-11  1.0276696991410935e-11  8.6895056704702888e-12  7.0359899272837804e-12  5.3272661857086523e-12  3.5758343441957562e-12  1.7952922999047612e-12  -2.4074124304840264e-28  </DataArray> 
</PointData> 
</Piece>
</UnstructuredGrid>
</VTKFile>