<?xml version="1.0"?>
<VTKFile type="UnstructuredGrid"  version="0.1"  >
<UnstructuredGrid>
<Piece  NumberOfPoints="101" NumberOfCells="100">
<Points>
<DataArray  type="Float64"  NumberOfComponents="3"  format="ascii">0 0 0  1e-07 0 0  2e-07 0 0  3e-07 0 0  4e-07 0 0  5e-07 0 0  6.000000000000001e-07 0 0  7.000000000000001e-07 0 0  8.000000000000001e-07 0 0  9.000000000000001e-07 0 0  1e-06 0 0  1.1e-06 0 0  1.2e-06 0 0  1.3e-06 0 0  1.4e-06 0 0  1.5e-06 0 0  1.6e-06 0 0  1.7e-06 0 0  1.8e-06 0 0  1.9e-06 0 0  2e-06 0 0  2.1e-06 0 0  2.2e-06 0 0  2.3e-06 0 0  2.4e-06 0 0  2.5e-06 0 0  2.600000000000001e-06 0 0  2.7e-06 0 0  2.8e-06 0 0  2.9e-06 0 0  3e-06 0 0  3.1e-06 0 0  3.2e-06 0 0  3.300000000000001e-06 0 0  3.4e-06 0 0  3.5e-06 0 0  3.6e-06 0 0  3.700000000000001e-06 0 0  3.8e-06 0 0  3.900000000000001e-06 0 0  4e-06 0 0  4.100000000000001e-06 0 0  4.2e-06 0 0  4.3e-06 0 0  4.4e-06 0 0  4.5e-06 0 0  4.6e-06 0 0  4.700000000000001e-06 0 0  4.800000000000001e-06 0 0  4.900000000000001e-06 0 0  5e-06 0 0  5.1e-06 0 0  5.200000000000001e-06 0 0  5.300000000000001e-06 0 0  5.4e-06 0 0  5.500000000000001e-06 0 0  5.600000000000001e-06 0 0  5.7e-06 0 0  5.8e-06 0 0  5.9e-06 0 0  6e-06 0 0  6.100000000000001e-06 0 0  6.2e-06 0 0  6.300000000000001e-06 0 0  6.400000000000001e-06 0 0  6.5e-06 0 0  6.600000000000001e-06 0 0  6.7e-06 0 0  6.8e-06 0 0  6.900000000000001e-06 0 0  7.000000000000001e-06 0 0  7.1e-06 0 0  7.200000000000001e-06 0 0  7.3e-06 0 0  7.400000000000001e-06 0 0  7.5e-06 0 0  7.6e-06 0 0  7.700000000000001e-06 0 0  7.800000000000002e-06 0 0  7.900000000000001e-06 0 0  8e-06 0 0  8.1e-06 0 0  8.200000000000001e-06 0 0  8.300000000000002e-06 0 0  8.400000000000001e-06 0 0  8.5e-06 0 0  8.600000000000001e-06 0 0  8.700000000000001e-06 0 0  8.8e-06 0 0  8.900000000000001e-06 0 0  9e-06 0 0  9.100000000000001e-06 0 0  9.2e-06 0 0  9.300000000000001e-06 0 0  9.400000000000001e-06 0 0  9.500000000000001e-06 0 0  9.600000000000001e-06 0 0  9.7e-06 0 0  9.800000000000001e-06 0 0  9.9e-06 0 0  1e-05 0 0  </DataArray>
</Points>
<Cells>
<DataArray  type="UInt32"  Name="connectivity"  format="ascii">0 1  1 2  2 3  3 4  4 5  5 6  6 7  7 8  8 9  9 10  10 11  11 12  12 13  13 14  14 15  15 16  16 17  17 18  18 19  19 20  20 21  21 22  22 23  23 24  24 25  25 26  26 27  27 28  28 29  29 30  30 31  31 32  32 33  33 34  34 35  35 36  36 37  37 38  38 39  39 40  40 41  41 42  42 43  43 44  44 45  45 46  46 47  47 48  48 49  49 50  50 51  51 52  52 53  53 54  54 55  55 56  56 57  57 58  58 59  59 60  60 61  61 62  62 63  63 64  64 65  65 66  66 67  67 68  68 69  69 70  70 71  71 72  72 73  73 74  74 75  75 76  76 77  77 78  78 79  79 80  80 81  81 82  82 83  83 84  84 85  85 86  86 87  87 88  88 89  89 90  90 91  91 92  92 93  93 94  94 95  95 96  96 97  97 98  98 99  99 100  </DataArray>
<DataArray  type="UInt32"  Name="offsets"  format="ascii">2 4 6 8 10 12 14 16 18 20 22 24 26 28 30 32 34 36 38 40 42 44 46 48 50 52 54 56 58 60 62 64 66 68 70 72 74 76 78 80 82 84 86 88 90 92 94 96 98 100 102 104 106 108 110 112 114 116 118 120 122 124 126 128 130 132 134 136 138 140 142 144 146 148 150 152 154 156 158 160 162 164 166 168 170 172 174 176 178 180 182 184 186 188 190 192 194 196 198 200 </DataArray>
<DataArray  type="UInt8"  Name="types"  format="ascii">3 3 3 3 3 3 3 3 3 3 3 3 3 3 3 3 3 3 3 3 3 3 3 3 3 3 3 3 3 3 3 3 3 3 3 3 3 3 3 3 3 3 3 3 3 3 3 3 3 3 3 3 3 3 3 3 3 3 3 3 3 3 3 3 3 3 3 3 3 3 3 3 3 3 3 3 3 3 3 3 3 3 3 3 3 3 3 3 3 3 3 3 3 3 3 3 3 3 3 3 </DataArray>
</Cells>
<PointData  Scalars="f_6027"> 
<DataArray  type="Float64"  Name="f_6027"  format="ascii">3.7615819226313179e-30  6.2088799614694376e-14  1.2374732156588507e-13  1.8455476708570711e-13  2.4410892528249661e-13  3.0203456384559025e-13  3.5799079449377676e-13  4.1167716411743415e-13  4.6283829256367295e-13  5.1126695484578666e-13  5.5680558374058559e-13  5.9934624304147115e-13  6.3882918762527379e-13  6.7524018045388699e-13  7.0860677637675015e-13  7.3899380711835298e-13  7.6649831133097413e-13  7.9124414931310500e-13  8.1337652598351767e-13  8.3305662052490821e-13  8.5045648957513522e-13  8.6575437574006414e-13  8.7913051709941643e-13  8.9076351847150917e-13  9.0082731322404918e-13  9.0948871659384151e-13  9.1690554854546311e-13  9.2322528645143912e-13  9.2858419523661246e-13  9.3310687473205978e-13  9.3690616026339218e-13  9.4008331226948264e-13  9.4272843327762594e-13  9.4492105512613779e-13  9.4673084525423181e-13  9.4821838758120188e-13  9.4943600047930992e-13  9.5042856121623164e-13  9.5123431271225043e-13  9.5188563432433125e-13  9.5240976351270559e-13  9.5282945960958798e-13  9.5316360448927519e-13  9.5342773776670821e-13  9.5363452628604960e-13  9.5379416917571761e-13  9.5391474072315796e-13  9.5400247384404881e-13  9.5406198706661089e-13  9.5409645779656614e-13  9.5410774423959800e-13  9.5409645779656634e-13  9.5406198706661048e-13  9.5400247384404760e-13  9.5391474072315674e-13  9.5379416917571519e-13  9.5363452628604677e-13  9.5342773776670518e-13  9.5316360448927095e-13  9.5282945960958354e-13  9.5240976351270014e-13  9.5188563432432560e-13  9.5123431271224437e-13  9.5042856121622599e-13  9.4943600047930467e-13  9.4821838758119724e-13  9.4673084525422676e-13  9.4492105512613396e-13  9.4272843327762210e-13  9.4008331226948062e-13  9.3690616026338996e-13  9.3310687473205918e-13  9.2858419523661145e-13  9.2322528645143851e-13  9.1690554854546250e-13  9.0948871659384212e-13  9.0082731322404998e-13  8.9076351847151008e-13  8.7913051709941804e-13  8.6575437574006636e-13  8.5045648957513805e-13  8.3305662052491094e-13  8.1337652598352070e-13  7.9124414931310813e-13  7.6649831133097736e-13  7.3899380711835712e-13  7.0860677637675338e-13  6.7524018045388992e-13  6.3882918762527662e-13  5.9934624304147378e-13  5.5680558374058832e-13  5.1126695484578847e-13  4.6283829256367497e-13  4.1167716411743567e-13  3.5799079449377727e-13  3.0203456384559111e-13  2.4410892528249712e-13  1.8455476708570792e-13  1.2374732156588532e-13  6.2088799614695045e-14  -3.7615819226312913e-30  </DataArray> 
</PointData> 
</Piece>
</UnstructuredGrid>
</VTKFile>