<?xml version="1.0"?>
<VTKFile type="UnstructuredGrid"  version="0.1"  >
<UnstructuredGrid>
<Piece  NumberOfPoints="101" NumberOfCells="100">
<Points>
<DataArray  type="Float64"  NumberOfComponents="3"  format="ascii">0 0 0  1e-07 0 0  2e-07 0 0  3e-07 0 0  4e-07 0 0  5e-07 0 0  6.000000000000001e-07 0 0  7.000000000000001e-07 0 0  8.000000000000001e-07 0 0  9.000000000000001e-07 0 0  1e-06 0 0  1.1e-06 0 0  1.2e-06 0 0  1.3e-06 0 0  1.4e-06 0 0  1.5e-06 0 0  1.6e-06 0 0  1.7e-06 0 0  1.8e-06 0 0  1.9e-06 0 0  2e-06 0 0  2.1e-06 0 0  2.2e-06 0 0  2.3e-06 0 0  2.4e-06 0 0  2.5e-06 0 0  2.600000000000001e-06 0 0  2.7e-06 0 0  2.8e-06 0 0  2.9e-06 0 0  3e-06 0 0  3.1e-06 0 0  3.2e-06 0 0  3.300000000000001e-06 0 0  3.4e-06 0 0  3.5e-06 0 0  3.6e-06 0 0  3.700000000000001e-06 0 0  3.8e-06 0 0  3.900000000000001e-06 0 0  4e-06 0 0  4.100000000000001e-06 0 0  4.2e-06 0 0  4.3e-06 0 0  4.4e-06 0 0  4.5e-06 0 0  4.6e-06 0 0  4.700000000000001e-06 0 0  4.800000000000001e-06 0 0  4.900000000000001e-06 0 0  5e-06 0 0  5.1e-06 0 0  5.200000000000001e-06 0 0  5.300000000000001e-06 0 0  5.4e-06 0 0  5.500000000000001e-06 0 0  5.600000000000001e-06 0 0  5.7e-06 0 0  5.8e-06 0 0  5.9e-06 0 0  6e-06 0 0  6.100000000000001e-06 0 0  6.2e-06 0 0  6.300000000000001e-06 0 0  6.400000000000001e-06 0 0  6.5e-06 0 0  6.600000000000001e-06 0 0  6.7e-06 0 0  6.8e-06 0 0  6.900000000000001e-06 0 0  7.000000000000001e-06 0 0  7.1e-06 0 0  7.200000000000001e-06 0 0  7.3e-06 0 0  7.400000000000001e-06 0 0  7.5e-06 0 0  7.6e-06 0 0  7.700000000000001e-06 0 0  7.800000000000002e-06 0 0  7.900000000000001e-06 0 0  8e-06 0 0  8.1e-06 0 0  8.200000000000001e-06 0 0  8.300000000000002e-06 0 0  8.400000000000001e-06 0 0  8.5e-06 0 0  8.600000000000001e-06 0 0  8.700000000000001e-06 0 0  8.8e-06 0 0  8.900000000000001e-06 0 0  9e-06 0 0  9.100000000000001e-06 0 0  9.2e-06 0 0  9.300000000000001e-06 0 0  9.400000000000001e-06 0 0  9.500000000000001e-06 0 0  9.600000000000001e-06 0 0  9.7e-06 0 0  9.800000000000001e-06 0 0  9.9e-06 0 0  1e-05 0 0  </DataArray>
</Points>
<Cells>
<DataArray  type="UInt32"  Name="connectivity"  format="ascii">0 1  1 2  2 3  3 4  4 5  5 6  6 7  7 8  8 9  9 10  10 11  11 12  12 13  13 14  14 15  15 16  16 17  17 18  18 19  19 20  20 21  21 22  22 23  23 24  24 25  25 26  26 27  27 28  28 29  29 30  30 31  31 32  32 33  33 34  34 35  35 36  36 37  37 38  38 39  39 40  40 41  41 42  42 43  43 44  44 45  45 46  46 47  47 48  48 49  49 50  50 51  51 52  52 53  53 54  54 55  55 56  56 57  57 58  58 59  59 60  60 61  61 62  62 63  63 64  64 65  65 66  66 67  67 68  68 69  69 70  70 71  71 72  72 73  73 74  74 75  75 76  76 77  77 78  78 79  79 80  80 81  81 82  82 83  83 84  84 85  85 86  86 87  87 88  88 89  89 90  90 91  91 92  92 93  93 94  94 95  95 96  96 97  97 98  98 99  99 100  </DataArray>
<DataArray  type="UInt32"  Name="offsets"  format="ascii">2 4 6 8 10 12 14 16 18 20 22 24 26 28 30 32 34 36 38 40 42 44 46 48 50 52 54 56 58 60 62 64 66 68 70 72 74 76 78 80 82 84 86 88 90 92 94 96 98 100 102 104 106 108 110 112 114 116 118 120 122 124 126 128 130 132 134 136 138 140 142 144 146 148 150 152 154 156 158 160 162 164 166 168 170 172 174 176 178 180 182 184 186 188 190 192 194 196 198 200 </DataArray>
<DataArray  type="UInt8"  Name="types"  format="ascii">3 3 3 3 3 3 3 3 3 3 3 3 3 3 3 3 3 3 3 3 3 3 3 3 3 3 3 3 3 3 3 3 3 3 3 3 3 3 3 3 3 3 3 3 3 3 3 3 3 3 3 3 3 3 3 3 3 3 3 3 3 3 3 3 3 3 3 3 3 3 3 3 3 3 3 3 3 3 3 3 3 3 3 3 3 3 3 3 3 3 3 3 3 3 3 3 3 3 3 3 </DataArray>
</Cells>
<PointData  Scalars="f_1352"> 
<DataArray  type="Float64"  Name="f_1352"  format="ascii">0.0000000000000000e+00  1.8325729653046966e-03  1.7541655731181062e-03  1.9125369047659421e-03  1.9680283531398998e-03  2.0160974407628972e-03  2.0444411179271339e-03  2.0637328380215935e-03  2.0761156430431408e-03  2.0842518349079315e-03  2.0895459916166386e-03  2.0930037299011894e-03  2.0952579932851942e-03  2.0967282811884141e-03  2.0976867421071813e-03  2.0983114494838567e-03  2.0987184866396291e-03  2.0989836224135998e-03  2.0991562711304835e-03  2.0992686593033290e-03  2.0993417961931229e-03  2.0993893747935288e-03  2.0994203167093665e-03  2.0994404329073785e-03  2.0994535069828080e-03  2.0994620016191179e-03  2.0994675191558089e-03  2.0994711017594454e-03  2.0994734269908525e-03  2.0994749351767477e-03  2.0994759123358093e-03  2.0994765441476547e-03  2.0994769510620285e-03  2.0994772111285562e-03  2.0994773748339054e-03  2.0994774747379163e-03  2.0994775317257981e-03  2.0994775590587197e-03  2.0994775649915520e-03  2.0994775544573656e-03  2.0994775301429449e-03  2.0994774931652875e-03  2.0994774434846234e-03  2.0994773801405672e-03  2.0994773013658682e-03  2.0994772046106160e-03  2.0994770864949937e-03  2.0994769426978680e-03  2.0994767677804159e-03  2.0994765549369509e-03  2.0994762956589685e-03  2.0994759792923872e-03  2.0994755924623621e-03  2.0994751183349447e-03  2.0994745356812689e-03  2.0994738177089727e-03  2.0994729306291868e-03  2.0994718319379420e-03  2.0994704684111605e-03  2.0994687738452476e-03  2.0994666666231160e-03  2.0994640472489596e-03  2.0994607960722763e-03  2.0994567715060973e-03  2.0994518091231994e-03  2.0994457220662116e-03  2.0994383032012531e-03  2.0994293293368623e-03  2.0994185675639468e-03  2.0994057832794599e-03  2.0993907486553907e-03  2.0993732491145214e-03  2.0993530836736873e-03  2.0993300526963715e-03  2.0993039235037447e-03  2.0992743601849122e-03  2.0992407983990162e-03  2.0992022382061307e-03  2.0991569166380827e-03  2.0991018045192380e-03  2.0990318451989021e-03  2.0989388105236784e-03  2.0988095822057060e-03  2.0986235619405076e-03  2.0983487472727284e-03  2.0979357654547989e-03  2.0973087397060694e-03  2.0963513868391894e-03  2.0948854157157464e-03  2.0926385227682158e-03  2.0891911890703919e-03  2.0839106467761097e-03  2.0757916598423062e-03  2.0634302685808067e-03  2.0441647775833738e-03  2.0158532095879713e-03  1.9678214748824977e-03  1.9123762419256424e-03  1.7540498503741324e-03  1.8325204360225785e-03  -2.5849394142281917e-19  </DataArray> 
</PointData> 
</Piece>
</UnstructuredGrid>
</VTKFile>