<?xml version="1.0"?>
<VTKFile type="UnstructuredGrid"  version="0.1"  >
<UnstructuredGrid>
<Piece  NumberOfPoints="101" NumberOfCells="100">
<Points>
<DataArray  type="Float64"  NumberOfComponents="3"  format="ascii">0 0 0  1e-07 0 0  2e-07 0 0  3e-07 0 0  4e-07 0 0  5e-07 0 0  6.000000000000001e-07 0 0  7.000000000000001e-07 0 0  8.000000000000001e-07 0 0  9.000000000000001e-07 0 0  1e-06 0 0  1.1e-06 0 0  1.2e-06 0 0  1.3e-06 0 0  1.4e-06 0 0  1.5e-06 0 0  1.6e-06 0 0  1.7e-06 0 0  1.8e-06 0 0  1.9e-06 0 0  2e-06 0 0  2.1e-06 0 0  2.2e-06 0 0  2.3e-06 0 0  2.4e-06 0 0  2.5e-06 0 0  2.600000000000001e-06 0 0  2.7e-06 0 0  2.8e-06 0 0  2.9e-06 0 0  3e-06 0 0  3.1e-06 0 0  3.2e-06 0 0  3.300000000000001e-06 0 0  3.4e-06 0 0  3.5e-06 0 0  3.6e-06 0 0  3.700000000000001e-06 0 0  3.8e-06 0 0  3.900000000000001e-06 0 0  4e-06 0 0  4.100000000000001e-06 0 0  4.2e-06 0 0  4.3e-06 0 0  4.4e-06 0 0  4.5e-06 0 0  4.6e-06 0 0  4.700000000000001e-06 0 0  4.800000000000001e-06 0 0  4.900000000000001e-06 0 0  5e-06 0 0  5.1e-06 0 0  5.200000000000001e-06 0 0  5.300000000000001e-06 0 0  5.4e-06 0 0  5.500000000000001e-06 0 0  5.600000000000001e-06 0 0  5.7e-06 0 0  5.8e-06 0 0  5.9e-06 0 0  6e-06 0 0  6.100000000000001e-06 0 0  6.2e-06 0 0  6.300000000000001e-06 0 0  6.400000000000001e-06 0 0  6.5e-06 0 0  6.600000000000001e-06 0 0  6.7e-06 0 0  6.8e-06 0 0  6.900000000000001e-06 0 0  7.000000000000001e-06 0 0  7.1e-06 0 0  7.200000000000001e-06 0 0  7.3e-06 0 0  7.400000000000001e-06 0 0  7.5e-06 0 0  7.6e-06 0 0  7.700000000000001e-06 0 0  7.800000000000002e-06 0 0  7.900000000000001e-06 0 0  8e-06 0 0  8.1e-06 0 0  8.200000000000001e-06 0 0  8.300000000000002e-06 0 0  8.400000000000001e-06 0 0  8.5e-06 0 0  8.600000000000001e-06 0 0  8.700000000000001e-06 0 0  8.8e-06 0 0  8.900000000000001e-06 0 0  9e-06 0 0  9.100000000000001e-06 0 0  9.2e-06 0 0  9.300000000000001e-06 0 0  9.400000000000001e-06 0 0  9.500000000000001e-06 0 0  9.600000000000001e-06 0 0  9.7e-06 0 0  9.800000000000001e-06 0 0  9.9e-06 0 0  1e-05 0 0  </DataArray>
</Points>
<Cells>
<DataArray  type="UInt32"  Name="connectivity"  format="ascii">0 1  1 2  2 3  3 4  4 5  5 6  6 7  7 8  8 9  9 10  10 11  11 12  12 13  13 14  14 15  15 16  16 17  17 18  18 19  19 20  20 21  21 22  22 23  23 24  24 25  25 26  26 27  27 28  28 29  29 30  30 31  31 32  32 33  33 34  34 35  35 36  36 37  37 38  38 39  39 40  40 41  41 42  42 43  43 44  44 45  45 46  46 47  47 48  48 49  49 50  50 51  51 52  52 53  53 54  54 55  55 56  56 57  57 58  58 59  59 60  60 61  61 62  62 63  63 64  64 65  65 66  66 67  67 68  68 69  69 70  70 71  71 72  72 73  73 74  74 75  75 76  76 77  77 78  78 79  79 80  80 81  81 82  82 83  83 84  84 85  85 86  86 87  87 88  88 89  89 90  90 91  91 92  92 93  93 94  94 95  95 96  96 97  97 98  98 99  99 100  </DataArray>
<DataArray  type="UInt32"  Name="offsets"  format="ascii">2 4 6 8 10 12 14 16 18 20 22 24 26 28 30 32 34 36 38 40 42 44 46 48 50 52 54 56 58 60 62 64 66 68 70 72 74 76 78 80 82 84 86 88 90 92 94 96 98 100 102 104 106 108 110 112 114 116 118 120 122 124 126 128 130 132 134 136 138 140 142 144 146 148 150 152 154 156 158 160 162 164 166 168 170 172 174 176 178 180 182 184 186 188 190 192 194 196 198 200 </DataArray>
<DataArray  type="UInt8"  Name="types"  format="ascii">3 3 3 3 3 3 3 3 3 3 3 3 3 3 3 3 3 3 3 3 3 3 3 3 3 3 3 3 3 3 3 3 3 3 3 3 3 3 3 3 3 3 3 3 3 3 3 3 3 3 3 3 3 3 3 3 3 3 3 3 3 3 3 3 3 3 3 3 3 3 3 3 3 3 3 3 3 3 3 3 3 3 3 3 3 3 3 3 3 3 3 3 3 3 3 3 3 3 3 3 </DataArray>
</Cells>
<PointData  Scalars="f_4982"> 
<DataArray  type="Float64"  Name="f_4982"  format="ascii">-4.0389678347315782e-21  2.9604897277444056e-05  5.5527267384059235e-05  7.7061079752156227e-05  9.4294776892706880e-05  1.0777666980752069e-04  1.1814787160726591e-04  1.2602733703833647e-04  1.3195456880692340e-04  1.3637722273450055e-04  1.3965467112072116e-04  1.4206912334601378e-04  1.4383857577897495e-04  1.4512930921959592e-04  1.4606687469524634e-04  1.4674527727129557e-04  1.4723440247551843e-04  1.4758588523953442e-04  1.4783766910479479e-04  1.4801750123931488e-04  1.4814558315701316e-04  1.4823656338242762e-04  1.4830102422120695e-04  1.4834658388584882e-04  1.4837870882436263e-04  1.4840130939440779e-04  1.4841717464517511e-04  1.4842828831909842e-04  1.4843605762354805e-04  1.4844147824701341e-04  1.4844525297994413e-04  1.4844787670920186e-04  1.4844969713211269e-04  1.4845095800010053e-04  1.4845182983347518e-04  1.4845243167937254e-04  1.4845284648552204e-04  1.4845313193648756e-04  1.4845332807362002e-04  1.4845346264115067e-04  1.4845355482869294e-04  1.4845361788551689e-04  1.4845366094281997e-04  1.4845369028116905e-04  1.4845371020997272e-04  1.4845372367603340e-04  1.4845373268302457e-04  1.4845373857886015e-04  1.4845374225034712e-04  1.4845374425202464e-04  1.4845374488712938e-04  1.4845374425202475e-04  1.4845374225034712e-04  1.4845373857886010e-04  1.4845373268302465e-04  1.4845372367603335e-04  1.4845371020997259e-04  1.4845369028116903e-04  1.4845366094281981e-04  1.4845361788551659e-04  1.4845355482869262e-04  1.4845346264115029e-04  1.4845332807361970e-04  1.4845313193648729e-04  1.4845284648552179e-04  1.4845243167937238e-04  1.4845182983347499e-04  1.4845095800010026e-04  1.4844969713211263e-04  1.4844787670920175e-04  1.4844525297994413e-04  1.4844147824701341e-04  1.4843605762354810e-04  1.4842828831909848e-04  1.4841717464517511e-04  1.4840130939440784e-04  1.4837870882436263e-04  1.4834658388584892e-04  1.4830102422120690e-04  1.4823656338242781e-04  1.4814558315701326e-04  1.4801750123931499e-04  1.4783766910479498e-04  1.4758588523953458e-04  1.4723440247551864e-04  1.4674527727129573e-04  1.4606687469524658e-04  1.4512930921959605e-04  1.4383857577897509e-04  1.4206912334601386e-04  1.3965467112072127e-04  1.3637722273450055e-04  1.3195456880692348e-04  1.2602733703833644e-04  1.1814787160726589e-04  1.0777666980752071e-04  9.4294776892706798e-05  7.7061079752156335e-05  5.5527267384059195e-05  2.9604897277444263e-05  4.0389678347315496e-21  </DataArray> 
</PointData> 
</Piece>
</UnstructuredGrid>
</VTKFile>