<?xml version="1.0"?>
<VTKFile type="UnstructuredGrid"  version="0.1"  >
<UnstructuredGrid>
<Piece  NumberOfPoints="101" NumberOfCells="100">
<Points>
<DataArray  type="Float64"  NumberOfComponents="3"  format="ascii">0 0 0  1e-07 0 0  2e-07 0 0  3e-07 0 0  4e-07 0 0  5e-07 0 0  6.000000000000001e-07 0 0  7.000000000000001e-07 0 0  8.000000000000001e-07 0 0  9.000000000000001e-07 0 0  1e-06 0 0  1.1e-06 0 0  1.2e-06 0 0  1.3e-06 0 0  1.4e-06 0 0  1.5e-06 0 0  1.6e-06 0 0  1.7e-06 0 0  1.8e-06 0 0  1.9e-06 0 0  2e-06 0 0  2.1e-06 0 0  2.2e-06 0 0  2.3e-06 0 0  2.4e-06 0 0  2.5e-06 0 0  2.600000000000001e-06 0 0  2.7e-06 0 0  2.8e-06 0 0  2.9e-06 0 0  3e-06 0 0  3.1e-06 0 0  3.2e-06 0 0  3.300000000000001e-06 0 0  3.4e-06 0 0  3.5e-06 0 0  3.6e-06 0 0  3.700000000000001e-06 0 0  3.8e-06 0 0  3.900000000000001e-06 0 0  4e-06 0 0  4.100000000000001e-06 0 0  4.2e-06 0 0  4.3e-06 0 0  4.4e-06 0 0  4.5e-06 0 0  4.6e-06 0 0  4.700000000000001e-06 0 0  4.800000000000001e-06 0 0  4.900000000000001e-06 0 0  5e-06 0 0  5.1e-06 0 0  5.200000000000001e-06 0 0  5.300000000000001e-06 0 0  5.4e-06 0 0  5.500000000000001e-06 0 0  5.600000000000001e-06 0 0  5.7e-06 0 0  5.8e-06 0 0  5.9e-06 0 0  6e-06 0 0  6.100000000000001e-06 0 0  6.2e-06 0 0  6.300000000000001e-06 0 0  6.400000000000001e-06 0 0  6.5e-06 0 0  6.600000000000001e-06 0 0  6.7e-06 0 0  6.8e-06 0 0  6.900000000000001e-06 0 0  7.000000000000001e-06 0 0  7.1e-06 0 0  7.200000000000001e-06 0 0  7.3e-06 0 0  7.400000000000001e-06 0 0  7.5e-06 0 0  7.6e-06 0 0  7.700000000000001e-06 0 0  7.800000000000002e-06 0 0  7.900000000000001e-06 0 0  8e-06 0 0  8.1e-06 0 0  8.200000000000001e-06 0 0  8.300000000000002e-06 0 0  8.400000000000001e-06 0 0  8.5e-06 0 0  8.600000000000001e-06 0 0  8.700000000000001e-06 0 0  8.8e-06 0 0  8.900000000000001e-06 0 0  9e-06 0 0  9.100000000000001e-06 0 0  9.2e-06 0 0  9.300000000000001e-06 0 0  9.400000000000001e-06 0 0  9.500000000000001e-06 0 0  9.600000000000001e-06 0 0  9.7e-06 0 0  9.800000000000001e-06 0 0  9.9e-06 0 0  1e-05 0 0  </DataArray>
</Points>
<Cells>
<DataArray  type="UInt32"  Name="connectivity"  format="ascii">0 1  1 2  2 3  3 4  4 5  5 6  6 7  7 8  8 9  9 10  10 11  11 12  12 13  13 14  14 15  15 16  16 17  17 18  18 19  19 20  20 21  21 22  22 23  23 24  24 25  25 26  26 27  27 28  28 29  29 30  30 31  31 32  32 33  33 34  34 35  35 36  36 37  37 38  38 39  39 40  40 41  41 42  42 43  43 44  44 45  45 46  46 47  47 48  48 49  49 50  50 51  51 52  52 53  53 54  54 55  55 56  56 57  57 58  58 59  59 60  60 61  61 62  62 63  63 64  64 65  65 66  66 67  67 68  68 69  69 70  70 71  71 72  72 73  73 74  74 75  75 76  76 77  77 78  78 79  79 80  80 81  81 82  82 83  83 84  84 85  85 86  86 87  87 88  88 89  89 90  90 91  91 92  92 93  93 94  94 95  95 96  96 97  97 98  98 99  99 100  </DataArray>
<DataArray  type="UInt32"  Name="offsets"  format="ascii">2 4 6 8 10 12 14 16 18 20 22 24 26 28 30 32 34 36 38 40 42 44 46 48 50 52 54 56 58 60 62 64 66 68 70 72 74 76 78 80 82 84 86 88 90 92 94 96 98 100 102 104 106 108 110 112 114 116 118 120 122 124 126 128 130 132 134 136 138 140 142 144 146 148 150 152 154 156 158 160 162 164 166 168 170 172 174 176 178 180 182 184 186 188 190 192 194 196 198 200 </DataArray>
<DataArray  type="UInt8"  Name="types"  format="ascii">3 3 3 3 3 3 3 3 3 3 3 3 3 3 3 3 3 3 3 3 3 3 3 3 3 3 3 3 3 3 3 3 3 3 3 3 3 3 3 3 3 3 3 3 3 3 3 3 3 3 3 3 3 3 3 3 3 3 3 3 3 3 3 3 3 3 3 3 3 3 3 3 3 3 3 3 3 3 3 3 3 3 3 3 3 3 3 3 3 3 3 3 3 3 3 3 3 3 3 3 </DataArray>
</Cells>
<PointData  Scalars="f_5147"> 
<DataArray  type="Float64"  Name="f_5147"  format="ascii">5.0487097934144727e-22  2.3543278050263792e-06  4.6158492383742793e-06  6.7116585638281358e-06  8.5933524243020002e-06  1.0237276784401338e-05  1.1640128317899560e-05  1.2813302769645888e-05  1.3777407699461382e-05  1.4557753362556244e-05  1.5181020416488332e-05  1.5673029468468210e-05  1.6057409104999815e-05  1.6354933440377100e-05  1.6583320952166049e-05  1.6757326232484100e-05  1.6888998797521715e-05  1.6988020884075716e-05  1.7062066476626711e-05  1.7117146488632834e-05  1.7157921040338651e-05  1.7187970487134415e-05  1.7210023594921738e-05  1.7226145181464524e-05  1.7237887555222271e-05  1.7246410865612092e-05  1.7252577515889172e-05  1.7257025413214201e-05  1.7260224256761240e-05  1.7262518428783394e-05  1.7264159433948722e-05  1.7265330270266856e-05  1.7266163628203635e-05  1.7266755406579896e-05  1.7267174700110693e-05  1.7267471145631565e-05  1.7267680302464060e-05  1.7267827577331519e-05  1.7267931076901995e-05  1.7268003673710582e-05  1.7268054497431427e-05  1.7268090007938533e-05  1.7268114765065020e-05  1.7268131979089666e-05  1.7268143903131376e-05  1.7268152111800238e-05  1.7268157698095435e-05  1.7268161411486151e-05  1.7268163753475336e-05  1.7268165042062900e-05  1.7268165452888855e-05  1.7268165042062910e-05  1.7268163753475347e-05  1.7268161411486151e-05  1.7268157698095435e-05  1.7268152111800228e-05  1.7268143903131366e-05  1.7268131979089639e-05  1.7268114765064996e-05  1.7268090007938499e-05  1.7268054497431380e-05  1.7268003673710524e-05  1.7267931076901948e-05  1.7267827577331468e-05  1.7267680302464026e-05  1.7267471145631534e-05  1.7267174700110670e-05  1.7266755406579869e-05  1.7266163628203611e-05  1.7265330270266852e-05  1.7264159433948726e-05  1.7262518428783394e-05  1.7260224256761243e-05  1.7257025413214201e-05  1.7252577515889169e-05  1.7246410865612105e-05  1.7237887555222285e-05  1.7226145181464534e-05  1.7210023594921755e-05  1.7187970487134432e-05  1.7157921040338678e-05  1.7117146488632848e-05  1.7062066476626745e-05  1.6988020884075743e-05  1.6888998797521732e-05  1.6757326232484128e-05  1.6583320952166083e-05  1.6354933440377127e-05  1.6057409104999832e-05  1.5673029468468231e-05  1.5181020416488352e-05  1.4557753362556259e-05  1.3777407699461394e-05  1.2813302769645903e-05  1.1640128317899543e-05  1.0237276784401343e-05  8.5933524243019935e-06  6.7116585638281426e-06  4.6158492383742734e-06  2.3543278050263978e-06  0.0000000000000000e+00  </DataArray> 
</PointData> 
</Piece>
</UnstructuredGrid>
</VTKFile>