<?xml version="1.0"?>
<VTKFile type="UnstructuredGrid"  version="0.1"  >
<UnstructuredGrid>
<Piece  NumberOfPoints="101" NumberOfCells="100">
<Points>
<DataArray  type="Float64"  NumberOfComponents="3"  format="ascii">0 0 0  1e-07 0 0  2e-07 0 0  3e-07 0 0  4e-07 0 0  5e-07 0 0  6.000000000000001e-07 0 0  7.000000000000001e-07 0 0  8.000000000000001e-07 0 0  9.000000000000001e-07 0 0  1e-06 0 0  1.1e-06 0 0  1.2e-06 0 0  1.3e-06 0 0  1.4e-06 0 0  1.5e-06 0 0  1.6e-06 0 0  1.7e-06 0 0  1.8e-06 0 0  1.9e-06 0 0  2e-06 0 0  2.1e-06 0 0  2.2e-06 0 0  2.3e-06 0 0  2.4e-06 0 0  2.5e-06 0 0  2.600000000000001e-06 0 0  2.7e-06 0 0  2.8e-06 0 0  2.9e-06 0 0  3e-06 0 0  3.1e-06 0 0  3.2e-06 0 0  3.300000000000001e-06 0 0  3.4e-06 0 0  3.5e-06 0 0  3.6e-06 0 0  3.700000000000001e-06 0 0  3.8e-06 0 0  3.900000000000001e-06 0 0  4e-06 0 0  4.100000000000001e-06 0 0  4.2e-06 0 0  4.3e-06 0 0  4.4e-06 0 0  4.5e-06 0 0  4.6e-06 0 0  4.700000000000001e-06 0 0  4.800000000000001e-06 0 0  4.900000000000001e-06 0 0  5e-06 0 0  5.1e-06 0 0  5.200000000000001e-06 0 0  5.300000000000001e-06 0 0  5.4e-06 0 0  5.500000000000001e-06 0 0  5.600000000000001e-06 0 0  5.7e-06 0 0  5.8e-06 0 0  5.9e-06 0 0  6e-06 0 0  6.100000000000001e-06 0 0  6.2e-06 0 0  6.300000000000001e-06 0 0  6.400000000000001e-06 0 0  6.5e-06 0 0  6.600000000000001e-06 0 0  6.7e-06 0 0  6.8e-06 0 0  6.900000000000001e-06 0 0  7.000000000000001e-06 0 0  7.1e-06 0 0  7.200000000000001e-06 0 0  7.3e-06 0 0  7.400000000000001e-06 0 0  7.5e-06 0 0  7.6e-06 0 0  7.700000000000001e-06 0 0  7.800000000000002e-06 0 0  7.900000000000001e-06 0 0  8e-06 0 0  8.1e-06 0 0  8.200000000000001e-06 0 0  8.300000000000002e-06 0 0  8.400000000000001e-06 0 0  8.5e-06 0 0  8.600000000000001e-06 0 0  8.700000000000001e-06 0 0  8.8e-06 0 0  8.900000000000001e-06 0 0  9e-06 0 0  9.100000000000001e-06 0 0  9.2e-06 0 0  9.300000000000001e-06 0 0  9.400000000000001e-06 0 0  9.500000000000001e-06 0 0  9.600000000000001e-06 0 0  9.7e-06 0 0  9.800000000000001e-06 0 0  9.9e-06 0 0  1e-05 0 0  </DataArray>
</Points>
<Cells>
<DataArray  type="UInt32"  Name="connectivity"  format="ascii">0 1  1 2  2 3  3 4  4 5  5 6  6 7  7 8  8 9  9 10  10 11  11 12  12 13  13 14  14 15  15 16  16 17  17 18  18 19  19 20  20 21  21 22  22 23  23 24  24 25  25 26  26 27  27 28  28 29  29 30  30 31  31 32  32 33  33 34  34 35  35 36  36 37  37 38  38 39  39 40  40 41  41 42  42 43  43 44  44 45  45 46  46 47  47 48  48 49  49 50  50 51  51 52  52 53  53 54  54 55  55 56  56 57  57 58  58 59  59 60  60 61  61 62  62 63  63 64  64 65  65 66  66 67  67 68  68 69  69 70  70 71  71 72  72 73  73 74  74 75  75 76  76 77  77 78  78 79  79 80  80 81  81 82  82 83  83 84  84 85  85 86  86 87  87 88  88 89  89 90  90 91  91 92  92 93  93 94  94 95  95 96  96 97  97 98  98 99  99 100  </DataArray>
<DataArray  type="UInt32"  Name="offsets"  format="ascii">2 4 6 8 10 12 14 16 18 20 22 24 26 28 30 32 34 36 38 40 42 44 46 48 50 52 54 56 58 60 62 64 66 68 70 72 74 76 78 80 82 84 86 88 90 92 94 96 98 100 102 104 106 108 110 112 114 116 118 120 122 124 126 128 130 132 134 136 138 140 142 144 146 148 150 152 154 156 158 160 162 164 166 168 170 172 174 176 178 180 182 184 186 188 190 192 194 196 198 200 </DataArray>
<DataArray  type="UInt8"  Name="types"  format="ascii">3 3 3 3 3 3 3 3 3 3 3 3 3 3 3 3 3 3 3 3 3 3 3 3 3 3 3 3 3 3 3 3 3 3 3 3 3 3 3 3 3 3 3 3 3 3 3 3 3 3 3 3 3 3 3 3 3 3 3 3 3 3 3 3 3 3 3 3 3 3 3 3 3 3 3 3 3 3 3 3 3 3 3 3 3 3 3 3 3 3 3 3 3 3 3 3 3 3 3 3 </DataArray>
</Cells>
<PointData  Scalars="f_4652"> 
<DataArray  type="Float64"  Name="f_4652"  format="ascii">-1.2924697071141050e-19  5.6118018210142768e-04  6.9417241748946797e-04  8.1604883335619676e-04  8.9088199961955624e-04  9.4452601927466791e-04  9.8110141880294226e-04  1.0065355703973440e-03  1.0240719035494842e-03  1.0361752046122157e-03  1.0445024358993922e-03  1.0502214661744181e-03  1.0541398642783240e-03  1.0568188428821588e-03  1.0586464969689245e-03  1.0598908184057748e-03  1.0607363271620551e-03  1.0613097740788102e-03  1.0616980114670803e-03  1.0619604153382144e-03  1.0621374872172491e-03  1.0622567957670533e-03  1.0623370689140589e-03  1.0623910048210901e-03  1.0624271978526818e-03  1.0624514549980079e-03  1.0624676936100785e-03  1.0624785523071377e-03  1.0624858058419678e-03  1.0624906463062448e-03  1.0624938733920699e-03  1.0624960229037388e-03  1.0624974534218824e-03  1.0624984046586114e-03  1.0624990366947533e-03  1.0624994563268018e-03  1.0624997347356976e-03  1.0624999193214709e-03  1.0625000416210340e-03  1.0625001225996562e-03  1.0625001761835576e-03  1.0625002116159033e-03  1.0625002350265226e-03  1.0625002504767033e-03  1.0625002606538133e-03  1.0625002673324416e-03  1.0625002716798599e-03  1.0625002744575132e-03  1.0625002761528257e-03  1.0625002770637492e-03  1.0625002773505593e-03  1.0625002770637492e-03  1.0625002761528262e-03  1.0625002744575136e-03  1.0625002716798592e-03  1.0625002673324425e-03  1.0625002606538126e-03  1.0625002504767033e-03  1.0625002350265222e-03  1.0625002116159028e-03  1.0625001761835563e-03  1.0625001225996553e-03  1.0625000416210329e-03  1.0624999193214698e-03  1.0624997347356965e-03  1.0624994563268016e-03  1.0624990366947522e-03  1.0624984046586107e-03  1.0624974534218816e-03  1.0624960229037390e-03  1.0624938733920690e-03  1.0624906463062452e-03  1.0624858058419675e-03  1.0624785523071379e-03  1.0624676936100788e-03  1.0624514549980077e-03  1.0624271978526823e-03  1.0623910048210901e-03  1.0623370689140594e-03  1.0622567957670533e-03  1.0621374872172493e-03  1.0619604153382152e-03  1.0616980114670803e-03  1.0613097740788107e-03  1.0607363271620551e-03  1.0598908184057752e-03  1.0586464969689251e-03  1.0568188428821594e-03  1.0541398642783240e-03  1.0502214661744186e-03  1.0445024358993924e-03  1.0361752046122161e-03  1.0240719035494842e-03  1.0065355703973440e-03  9.8110141880294204e-04  9.4452601927466802e-04  8.9088199961955548e-04  8.1604883335619741e-04  6.9417241748946743e-04  5.6118018210142995e-04  -6.4623485355704794e-20  </DataArray> 
</PointData> 
</Piece>
</UnstructuredGrid>
</VTKFile>