<?xml version="1.0"?>
<VTKFile type="UnstructuredGrid"  version="0.1"  >
<UnstructuredGrid>
<Piece  NumberOfPoints="101" NumberOfCells="100">
<Points>
<DataArray  type="Float64"  NumberOfComponents="3"  format="ascii">0 0 0  1e-07 0 0  2e-07 0 0  3e-07 0 0  4e-07 0 0  5e-07 0 0  6.000000000000001e-07 0 0  7.000000000000001e-07 0 0  8.000000000000001e-07 0 0  9.000000000000001e-07 0 0  1e-06 0 0  1.1e-06 0 0  1.2e-06 0 0  1.3e-06 0 0  1.4e-06 0 0  1.5e-06 0 0  1.6e-06 0 0  1.7e-06 0 0  1.8e-06 0 0  1.9e-06 0 0  2e-06 0 0  2.1e-06 0 0  2.2e-06 0 0  2.3e-06 0 0  2.4e-06 0 0  2.5e-06 0 0  2.600000000000001e-06 0 0  2.7e-06 0 0  2.8e-06 0 0  2.9e-06 0 0  3e-06 0 0  3.1e-06 0 0  3.2e-06 0 0  3.300000000000001e-06 0 0  3.4e-06 0 0  3.5e-06 0 0  3.6e-06 0 0  3.700000000000001e-06 0 0  3.8e-06 0 0  3.900000000000001e-06 0 0  4e-06 0 0  4.100000000000001e-06 0 0  4.2e-06 0 0  4.3e-06 0 0  4.4e-06 0 0  4.5e-06 0 0  4.6e-06 0 0  4.700000000000001e-06 0 0  4.800000000000001e-06 0 0  4.900000000000001e-06 0 0  5e-06 0 0  5.1e-06 0 0  5.200000000000001e-06 0 0  5.300000000000001e-06 0 0  5.4e-06 0 0  5.500000000000001e-06 0 0  5.600000000000001e-06 0 0  5.7e-06 0 0  5.8e-06 0 0  5.9e-06 0 0  6e-06 0 0  6.100000000000001e-06 0 0  6.2e-06 0 0  6.300000000000001e-06 0 0  6.400000000000001e-06 0 0  6.5e-06 0 0  6.600000000000001e-06 0 0  6.7e-06 0 0  6.8e-06 0 0  6.900000000000001e-06 0 0  7.000000000000001e-06 0 0  7.1e-06 0 0  7.200000000000001e-06 0 0  7.3e-06 0 0  7.400000000000001e-06 0 0  7.5e-06 0 0  7.6e-06 0 0  7.700000000000001e-06 0 0  7.800000000000002e-06 0 0  7.900000000000001e-06 0 0  8e-06 0 0  8.1e-06 0 0  8.200000000000001e-06 0 0  8.300000000000002e-06 0 0  8.400000000000001e-06 0 0  8.5e-06 0 0  8.600000000000001e-06 0 0  8.700000000000001e-06 0 0  8.8e-06 0 0  8.900000000000001e-06 0 0  9e-06 0 0  9.100000000000001e-06 0 0  9.2e-06 0 0  9.300000000000001e-06 0 0  9.400000000000001e-06 0 0  9.500000000000001e-06 0 0  9.600000000000001e-06 0 0  9.7e-06 0 0  9.800000000000001e-06 0 0  9.9e-06 0 0  1e-05 0 0  </DataArray>
</Points>
<Cells>
<DataArray  type="UInt32"  Name="connectivity"  format="ascii">0 1  1 2  2 3  3 4  4 5  5 6  6 7  7 8  8 9  9 10  10 11  11 12  12 13  13 14  14 15  15 16  16 17  17 18  18 19  19 20  20 21  21 22  22 23  23 24  24 25  25 26  26 27  27 28  28 29  29 30  30 31  31 32  32 33  33 34  34 35  35 36  36 37  37 38  38 39  39 40  40 41  41 42  42 43  43 44  44 45  45 46  46 47  47 48  48 49  49 50  50 51  51 52  52 53  53 54  54 55  55 56  56 57  57 58  58 59  59 60  60 61  61 62  62 63  63 64  64 65  65 66  66 67  67 68  68 69  69 70  70 71  71 72  72 73  73 74  74 75  75 76  76 77  77 78  78 79  79 80  80 81  81 82  82 83  83 84  84 85  85 86  86 87  87 88  88 89  89 90  90 91  91 92  92 93  93 94  94 95  95 96  96 97  97 98  98 99  99 100  </DataArray>
<DataArray  type="UInt32"  Name="offsets"  format="ascii">2 4 6 8 10 12 14 16 18 20 22 24 26 28 30 32 34 36 38 40 42 44 46 48 50 52 54 56 58 60 62 64 66 68 70 72 74 76 78 80 82 84 86 88 90 92 94 96 98 100 102 104 106 108 110 112 114 116 118 120 122 124 126 128 130 132 134 136 138 140 142 144 146 148 150 152 154 156 158 160 162 164 166 168 170 172 174 176 178 180 182 184 186 188 190 192 194 196 198 200 </DataArray>
<DataArray  type="UInt8"  Name="types"  format="ascii">3 3 3 3 3 3 3 3 3 3 3 3 3 3 3 3 3 3 3 3 3 3 3 3 3 3 3 3 3 3 3 3 3 3 3 3 3 3 3 3 3 3 3 3 3 3 3 3 3 3 3 3 3 3 3 3 3 3 3 3 3 3 3 3 3 3 3 3 3 3 3 3 3 3 3 3 3 3 3 3 3 3 3 3 3 3 3 3 3 3 3 3 3 3 3 3 3 3 3 3 </DataArray>
</Cells>
<PointData  Scalars="f_1847"> 
<DataArray  type="Float64"  Name="f_1847"  format="ascii">-2.5849394142282100e-19  1.8325544703502485e-03  1.7541278175620002e-03  1.9124864370570187e-03  1.9679680926262479e-03  2.0160322536925176e-03  2.0443749445018147e-03  2.0636689590583881e-03  2.0760564214319208e-03  2.0841987402033016e-03  2.0894997246619709e-03  2.0929643866719316e-03  2.0952252428455094e-03  2.0967015243614421e-03  2.0976652413411717e-03  2.0982944253838628e-03  2.0987051837975091e-03  2.0989733495580440e-03  2.0991484216526463e-03  2.0992627178766502e-03  2.0993373363333051e-03  2.0993860511219981e-03  2.0994178546441559e-03  2.0994386176179151e-03  2.0994521727496444e-03  2.0994610222298802e-03  2.0994667996182270e-03  2.0994705713871524e-03  2.0994730337850769e-03  2.0994746413589426e-03  2.0994756908604049e-03  2.0994763760241526e-03  2.0994768233300698e-03  2.0994771153506056e-03  2.0994773059931715e-03  2.0994774304511511e-03  2.0994775117004461e-03  2.0994775647407366e-03  2.0994775993643899e-03  2.0994776219641445e-03  2.0994776367132192e-03  2.0994776463357412e-03  2.0994776526096623e-03  2.0994776566950362e-03  2.0994776593482377e-03  2.0994776610616735e-03  2.0994776621547895e-03  2.0994776628331531e-03  2.0994776632265438e-03  2.0994776634130820e-03  2.0994776634338380e-03  2.0994776633006316e-03  2.0994776629984957e-03  2.0994776624831861e-03  2.0994776616733890e-03  2.0994776604360615e-03  2.0994776585623333e-03  2.0994776557294189e-03  2.0994776514415407e-03  2.0994776449389766e-03  2.0994776350584002e-03  2.0994776200187271e-03  2.0994775970929426e-03  2.0994775621052809e-03  2.0994775086609287e-03  2.0994774269660469e-03  2.0994773020202298e-03  2.0994771108477396e-03  2.0994768182563753e-03  2.0994763703410554e-03  2.0994756845328930e-03  2.0994746343568852e-03  2.0994730260845440e-03  2.0994705629717452e-03  2.0994667904803339e-03  2.0994610123718201e-03  2.0994521621846727e-03  2.0994386063710175e-03  2.0994178427526261e-03  2.0993860386357660e-03  2.0993373233149982e-03  2.0992627044013972e-03  2.0991484078076092e-03  2.0989733354417166e-03  2.0987051695187720e-03  2.0982944110608426e-03  2.0976652270998757e-03  2.0967015103342378e-03  2.0952252291694044e-03  2.0929643734867065e-03  2.0894997121080924e-03  2.0841987284198832e-03  2.0760564105538623e-03  2.0636689492157397e-03  2.0443749358114134e-03  2.0160322462743022e-03  1.9679680865432514e-03  1.9124864324805526e-03  1.7541278143235197e-03  1.8325544689330210e-03  -1.2924697071140959e-19  </DataArray> 
</PointData> 
</Piece>
</UnstructuredGrid>
</VTKFile>