<?xml version="1.0"?>
<VTKFile type="UnstructuredGrid"  version="0.1"  >
<UnstructuredGrid>
<Piece  NumberOfPoints="101" NumberOfCells="100">
<Points>
<DataArray  type="Float64"  NumberOfComponents="3"  format="ascii">0 0 0  1e-07 0 0  2e-07 0 0  3e-07 0 0  4e-07 0 0  5e-07 0 0  6.000000000000001e-07 0 0  7.000000000000001e-07 0 0  8.000000000000001e-07 0 0  9.000000000000001e-07 0 0  1e-06 0 0  1.1e-06 0 0  1.2e-06 0 0  1.3e-06 0 0  1.4e-06 0 0  1.5e-06 0 0  1.6e-06 0 0  1.7e-06 0 0  1.8e-06 0 0  1.9e-06 0 0  2e-06 0 0  2.1e-06 0 0  2.2e-06 0 0  2.3e-06 0 0  2.4e-06 0 0  2.5e-06 0 0  2.600000000000001e-06 0 0  2.7e-06 0 0  2.8e-06 0 0  2.9e-06 0 0  3e-06 0 0  3.1e-06 0 0  3.2e-06 0 0  3.300000000000001e-06 0 0  3.4e-06 0 0  3.5e-06 0 0  3.6e-06 0 0  3.700000000000001e-06 0 0  3.8e-06 0 0  3.900000000000001e-06 0 0  4e-06 0 0  4.100000000000001e-06 0 0  4.2e-06 0 0  4.3e-06 0 0  4.4e-06 0 0  4.5e-06 0 0  4.6e-06 0 0  4.700000000000001e-06 0 0  4.800000000000001e-06 0 0  4.900000000000001e-06 0 0  5e-06 0 0  5.1e-06 0 0  5.200000000000001e-06 0 0  5.300000000000001e-06 0 0  5.4e-06 0 0  5.500000000000001e-06 0 0  5.600000000000001e-06 0 0  5.7e-06 0 0  5.8e-06 0 0  5.9e-06 0 0  6e-06 0 0  6.100000000000001e-06 0 0  6.2e-06 0 0  6.300000000000001e-06 0 0  6.400000000000001e-06 0 0  6.5e-06 0 0  6.600000000000001e-06 0 0  6.7e-06 0 0  6.8e-06 0 0  6.900000000000001e-06 0 0  7.000000000000001e-06 0 0  7.1e-06 0 0  7.200000000000001e-06 0 0  7.3e-06 0 0  7.400000000000001e-06 0 0  7.5e-06 0 0  7.6e-06 0 0  7.700000000000001e-06 0 0  7.800000000000002e-06 0 0  7.900000000000001e-06 0 0  8e-06 0 0  8.1e-06 0 0  8.200000000000001e-06 0 0  8.300000000000002e-06 0 0  8.400000000000001e-06 0 0  8.5e-06 0 0  8.600000000000001e-06 0 0  8.700000000000001e-06 0 0  8.8e-06 0 0  8.900000000000001e-06 0 0  9e-06 0 0  9.100000000000001e-06 0 0  9.2e-06 0 0  9.300000000000001e-06 0 0  9.400000000000001e-06 0 0  9.500000000000001e-06 0 0  9.600000000000001e-06 0 0  9.7e-06 0 0  9.800000000000001e-06 0 0  9.9e-06 0 0  1e-05 0 0  </DataArray>
</Points>
<Cells>
<DataArray  type="UInt32"  Name="connectivity"  format="ascii">0 1  1 2  2 3  3 4  4 5  5 6  6 7  7 8  8 9  9 10  10 11  11 12  12 13  13 14  14 15  15 16  16 17  17 18  18 19  19 20  20 21  21 22  22 23  23 24  24 25  25 26  26 27  27 28  28 29  29 30  30 31  31 32  32 33  33 34  34 35  35 36  36 37  37 38  38 39  39 40  40 41  41 42  42 43  43 44  44 45  45 46  46 47  47 48  48 49  49 50  50 51  51 52  52 53  53 54  54 55  55 56  56 57  57 58  58 59  59 60  60 61  61 62  62 63  63 64  64 65  65 66  66 67  67 68  68 69  69 70  70 71  71 72  72 73  73 74  74 75  75 76  76 77  77 78  78 79  79 80  80 81  81 82  82 83  83 84  84 85  85 86  86 87  87 88  88 89  89 90  90 91  91 92  92 93  93 94  94 95  95 96  96 97  97 98  98 99  99 100  </DataArray>
<DataArray  type="UInt32"  Name="offsets"  format="ascii">2 4 6 8 10 12 14 16 18 20 22 24 26 28 30 32 34 36 38 40 42 44 46 48 50 52 54 56 58 60 62 64 66 68 70 72 74 76 78 80 82 84 86 88 90 92 94 96 98 100 102 104 106 108 110 112 114 116 118 120 122 124 126 128 130 132 134 136 138 140 142 144 146 148 150 152 154 156 158 160 162 164 166 168 170 172 174 176 178 180 182 184 186 188 190 192 194 196 198 200 </DataArray>
<DataArray  type="UInt8"  Name="types"  format="ascii">3 3 3 3 3 3 3 3 3 3 3 3 3 3 3 3 3 3 3 3 3 3 3 3 3 3 3 3 3 3 3 3 3 3 3 3 3 3 3 3 3 3 3 3 3 3 3 3 3 3 3 3 3 3 3 3 3 3 3 3 3 3 3 3 3 3 3 3 3 3 3 3 3 3 3 3 3 3 3 3 3 3 3 3 3 3 3 3 3 3 3 3 3 3 3 3 3 3 3 3 </DataArray>
</Cells>
<PointData  Scalars="f_2067"> 
<DataArray  type="Float64"  Name="f_2067"  format="ascii">0.0000000000000000e+00  1.8325544701532314e-03  1.7541278171166878e-03  1.9124864364364028e-03  1.9679680918184921e-03  2.0160322527327653e-03  2.0443749434128473e-03  2.0636689578703332e-03  2.0760564201740320e-03  2.0841987389048386e-03  2.0894997233504788e-03  2.0929643853725135e-03  2.0952252415800975e-03  2.0967015231483804e-03  2.0976652401950139e-03  2.0982944243153711e-03  2.0987051828138454e-03  2.0989733486630785e-03  2.0991484208473790e-03  2.0992627171596660e-03  2.0993373357012647e-03  2.0993860505701084e-03  2.0994178541666095e-03  2.0994386172082861e-03  2.0994521724012191e-03  2.0994610219359378e-03  2.0994667993722571e-03  2.0994705711830058e-03  2.0994730336170880e-03  2.0994746412219948e-03  2.0994756907499650e-03  2.0994763759362893e-03  2.0994768232614337e-03  2.0994771152984164e-03  2.0994773059551898e-03  2.0994774304256437e-03  2.0994775116861607e-03  2.0994775647368751e-03  2.0994775993705998e-03  2.0994776219805003e-03  2.0994776367402354e-03  2.0994776463743774e-03  2.0994776526613631e-03  2.0994776567617667e-03  2.0994776594325439e-03  2.0994776611667552e-03  2.0994776622845924e-03  2.0994776629924784e-03  2.0994776634211754e-03  2.0994776636499295e-03  2.0994776637210904e-03  2.0994776636479480e-03  2.0994776634171760e-03  2.0994776629863804e-03  2.0994776622762848e-03  2.0994776611560802e-03  2.0994776594193149e-03  2.0994776567457587e-03  2.0994776526423176e-03  2.0994776463520038e-03  2.0994776367142141e-03  2.0994776219504909e-03  2.0994775993362410e-03  2.0994775646977905e-03  2.0994775116419634e-03  2.0994774303759517e-03  2.0994773058996270e-03  2.0994771152366243e-03  2.0994768231930808e-03  2.0994763758610843e-03  2.0994756906676649e-03  2.0994746411324172e-03  2.0994730335201195e-03  2.0994705710786197e-03  2.0994667992605149e-03  2.0994610218170043e-03  2.0994521722753632e-03  2.0994386170758938e-03  2.0994178540281808e-03  2.0993860504262634e-03  2.0993373355527411e-03  2.0992627170073196e-03  2.0991484206921715e-03  2.0989733485060800e-03  2.0987051826562089e-03  2.0982944241583409e-03  2.0976652400398919e-03  2.0967015229965201e-03  2.0952252414328859e-03  2.0929643852313465e-03  2.0894997232167476e-03  2.0841987387798981e-03  2.0760564200591864e-03  2.0636689577668245e-03  2.0443749433217708e-03  2.0160322526552588e-03  1.9679680917550940e-03  1.9124864363888059e-03  1.7541278170830517e-03  1.8325544701385311e-03  1.2924697071140959e-19  </DataArray> 
</PointData> 
</Piece>
</UnstructuredGrid>
</VTKFile>