<?xml version="1.0"?>
<VTKFile type="UnstructuredGrid"  version="0.1"  >
<UnstructuredGrid>
<Piece  NumberOfPoints="101" NumberOfCells="100">
<Points>
<DataArray  type="Float64"  NumberOfComponents="3"  format="ascii">0 0 0  1e-07 0 0  2e-07 0 0  3e-07 0 0  4e-07 0 0  5e-07 0 0  6.000000000000001e-07 0 0  7.000000000000001e-07 0 0  8.000000000000001e-07 0 0  9.000000000000001e-07 0 0  1e-06 0 0  1.1e-06 0 0  1.2e-06 0 0  1.3e-06 0 0  1.4e-06 0 0  1.5e-06 0 0  1.6e-06 0 0  1.7e-06 0 0  1.8e-06 0 0  1.9e-06 0 0  2e-06 0 0  2.1e-06 0 0  2.2e-06 0 0  2.3e-06 0 0  2.4e-06 0 0  2.5e-06 0 0  2.600000000000001e-06 0 0  2.7e-06 0 0  2.8e-06 0 0  2.9e-06 0 0  3e-06 0 0  3.1e-06 0 0  3.2e-06 0 0  3.300000000000001e-06 0 0  3.4e-06 0 0  3.5e-06 0 0  3.6e-06 0 0  3.700000000000001e-06 0 0  3.8e-06 0 0  3.900000000000001e-06 0 0  4e-06 0 0  4.100000000000001e-06 0 0  4.2e-06 0 0  4.3e-06 0 0  4.4e-06 0 0  4.5e-06 0 0  4.6e-06 0 0  4.700000000000001e-06 0 0  4.800000000000001e-06 0 0  4.900000000000001e-06 0 0  5e-06 0 0  5.1e-06 0 0  5.200000000000001e-06 0 0  5.300000000000001e-06 0 0  5.4e-06 0 0  5.500000000000001e-06 0 0  5.600000000000001e-06 0 0  5.7e-06 0 0  5.8e-06 0 0  5.9e-06 0 0  6e-06 0 0  6.100000000000001e-06 0 0  6.2e-06 0 0  6.300000000000001e-06 0 0  6.400000000000001e-06 0 0  6.5e-06 0 0  6.600000000000001e-06 0 0  6.7e-06 0 0  6.8e-06 0 0  6.900000000000001e-06 0 0  7.000000000000001e-06 0 0  7.1e-06 0 0  7.200000000000001e-06 0 0  7.3e-06 0 0  7.400000000000001e-06 0 0  7.5e-06 0 0  7.6e-06 0 0  7.700000000000001e-06 0 0  7.800000000000002e-06 0 0  7.900000000000001e-06 0 0  8e-06 0 0  8.1e-06 0 0  8.200000000000001e-06 0 0  8.300000000000002e-06 0 0  8.400000000000001e-06 0 0  8.5e-06 0 0  8.600000000000001e-06 0 0  8.700000000000001e-06 0 0  8.8e-06 0 0  8.900000000000001e-06 0 0  9e-06 0 0  9.100000000000001e-06 0 0  9.2e-06 0 0  9.300000000000001e-06 0 0  9.400000000000001e-06 0 0  9.500000000000001e-06 0 0  9.600000000000001e-06 0 0  9.7e-06 0 0  9.800000000000001e-06 0 0  9.9e-06 0 0  1e-05 0 0  </DataArray>
</Points>
<Cells>
<DataArray  type="UInt32"  Name="connectivity"  format="ascii">0 1  1 2  2 3  3 4  4 5  5 6  6 7  7 8  8 9  9 10  10 11  11 12  12 13  13 14  14 15  15 16  16 17  17 18  18 19  19 20  20 21  21 22  22 23  23 24  24 25  25 26  26 27  27 28  28 29  29 30  30 31  31 32  32 33  33 34  34 35  35 36  36 37  37 38  38 39  39 40  40 41  41 42  42 43  43 44  44 45  45 46  46 47  47 48  48 49  49 50  50 51  51 52  52 53  53 54  54 55  55 56  56 57  57 58  58 59  59 60  60 61  61 62  62 63  63 64  64 65  65 66  66 67  67 68  68 69  69 70  70 71  71 72  72 73  73 74  74 75  75 76  76 77  77 78  78 79  79 80  80 81  81 82  82 83  83 84  84 85  85 86  86 87  87 88  88 89  89 90  90 91  91 92  92 93  93 94  94 95  95 96  96 97  97 98  98 99  99 100  </DataArray>
<DataArray  type="UInt32"  Name="offsets"  format="ascii">2 4 6 8 10 12 14 16 18 20 22 24 26 28 30 32 34 36 38 40 42 44 46 48 50 52 54 56 58 60 62 64 66 68 70 72 74 76 78 80 82 84 86 88 90 92 94 96 98 100 102 104 106 108 110 112 114 116 118 120 122 124 126 128 130 132 134 136 138 140 142 144 146 148 150 152 154 156 158 160 162 164 166 168 170 172 174 176 178 180 182 184 186 188 190 192 194 196 198 200 </DataArray>
<DataArray  type="UInt8"  Name="types"  format="ascii">3 3 3 3 3 3 3 3 3 3 3 3 3 3 3 3 3 3 3 3 3 3 3 3 3 3 3 3 3 3 3 3 3 3 3 3 3 3 3 3 3 3 3 3 3 3 3 3 3 3 3 3 3 3 3 3 3 3 3 3 3 3 3 3 3 3 3 3 3 3 3 3 3 3 3 3 3 3 3 3 3 3 3 3 3 3 3 3 3 3 3 3 3 3 3 3 3 3 3 3 </DataArray>
</Cells>
<PointData  Scalars="f_4157"> 
<DataArray  type="Float64"  Name="f_4157"  format="ascii">0.0000000000000000e+00  1.7996004641925504e-03  1.7394208765946415e-03  1.8984648834517624e-03  1.9558462784159771e-03  2.0045575357604331e-03  2.0334069263994552e-03  2.0529913538868648e-03  2.0655749111782177e-03  2.0738435841548791e-03  2.0792285119242090e-03  2.0827485925836720e-03  2.0850462345383468e-03  2.0865469052343670e-03  2.0875267990139142e-03  2.0881667038133984e-03  2.0885845624535040e-03  2.0888574264404272e-03  2.0890356047157115e-03  2.0891519527918402e-03  2.0892279255356029e-03  2.0892775335028847e-03  2.0893099256665223e-03  2.0893310763175628e-03  2.0893448866130850e-03  2.0893539039422687e-03  2.0893597916851530e-03  2.0893636359734830e-03  2.0893661460069214e-03  2.0893677848588645e-03  2.0893688548909565e-03  2.0893695535269419e-03  2.0893700096713385e-03  2.0893703074894702e-03  2.0893705019347573e-03  2.0893706288872484e-03  2.0893707117734671e-03  2.0893707658887688e-03  2.0893708012195015e-03  2.0893708242856802e-03  2.0893708393440731e-03  2.0893708491736929e-03  2.0893708555886205e-03  2.0893708597727640e-03  2.0893708624983394e-03  2.0893708642683788e-03  2.0893708654095696e-03  2.0893708661325300e-03  2.0893708665706973e-03  2.0893708668049409e-03  2.0893708668784979e-03  2.0893708668049409e-03  2.0893708665706973e-03  2.0893708661325295e-03  2.0893708654095701e-03  2.0893708642683792e-03  2.0893708624983402e-03  2.0893708597727622e-03  2.0893708555886213e-03  2.0893708491736929e-03  2.0893708393440714e-03  2.0893708242856793e-03  2.0893708012195002e-03  2.0893707658887670e-03  2.0893707117734667e-03  2.0893706288872466e-03  2.0893705019347565e-03  2.0893703074894693e-03  2.0893700096713376e-03  2.0893695535269415e-03  2.0893688548909556e-03  2.0893677848588645e-03  2.0893661460069206e-03  2.0893636359734838e-03  2.0893597916851526e-03  2.0893539039422700e-03  2.0893448866130837e-03  2.0893310763175636e-03  2.0893099256665223e-03  2.0892775335028843e-03  2.0892279255356042e-03  2.0891519527918407e-03  2.0890356047157115e-03  2.0888574264404289e-03  2.0885845624535044e-03  2.0881667038133984e-03  2.0875267990139146e-03  2.0865469052343670e-03  2.0850462345383472e-03  2.0827485925836720e-03  2.0792285119242094e-03  2.0738435841548795e-03  2.0655749111782181e-03  2.0529913538868657e-03  2.0334069263994530e-03  2.0045575357604357e-03  1.9558462784159754e-03  1.8984648834517641e-03  1.7394208765946410e-03  1.7996004641925550e-03  -2.5849394142281917e-19  </DataArray> 
</PointData> 
</Piece>
</UnstructuredGrid>
</VTKFile>