<?xml version="1.0"?>
<VTKFile type="UnstructuredGrid"  version="0.1"  >
<UnstructuredGrid>
<Piece  NumberOfPoints="101" NumberOfCells="100">
<Points>
<DataArray  type="Float64"  NumberOfComponents="3"  format="ascii">0 0 0  1e-07 0 0  2e-07 0 0  3e-07 0 0  4e-07 0 0  5e-07 0 0  6.000000000000001e-07 0 0  7.000000000000001e-07 0 0  8.000000000000001e-07 0 0  9.000000000000001e-07 0 0  1e-06 0 0  1.1e-06 0 0  1.2e-06 0 0  1.3e-06 0 0  1.4e-06 0 0  1.5e-06 0 0  1.6e-06 0 0  1.7e-06 0 0  1.8e-06 0 0  1.9e-06 0 0  2e-06 0 0  2.1e-06 0 0  2.2e-06 0 0  2.3e-06 0 0  2.4e-06 0 0  2.5e-06 0 0  2.600000000000001e-06 0 0  2.7e-06 0 0  2.8e-06 0 0  2.9e-06 0 0  3e-06 0 0  3.1e-06 0 0  3.2e-06 0 0  3.300000000000001e-06 0 0  3.4e-06 0 0  3.5e-06 0 0  3.6e-06 0 0  3.700000000000001e-06 0 0  3.8e-06 0 0  3.900000000000001e-06 0 0  4e-06 0 0  4.100000000000001e-06 0 0  4.2e-06 0 0  4.3e-06 0 0  4.4e-06 0 0  4.5e-06 0 0  4.6e-06 0 0  4.700000000000001e-06 0 0  4.800000000000001e-06 0 0  4.900000000000001e-06 0 0  5e-06 0 0  5.1e-06 0 0  5.200000000000001e-06 0 0  5.300000000000001e-06 0 0  5.4e-06 0 0  5.500000000000001e-06 0 0  5.600000000000001e-06 0 0  5.7e-06 0 0  5.8e-06 0 0  5.9e-06 0 0  6e-06 0 0  6.100000000000001e-06 0 0  6.2e-06 0 0  6.300000000000001e-06 0 0  6.400000000000001e-06 0 0  6.5e-06 0 0  6.600000000000001e-06 0 0  6.7e-06 0 0  6.8e-06 0 0  6.900000000000001e-06 0 0  7.000000000000001e-06 0 0  7.1e-06 0 0  7.200000000000001e-06 0 0  7.3e-06 0 0  7.400000000000001e-06 0 0  7.5e-06 0 0  7.6e-06 0 0  7.700000000000001e-06 0 0  7.800000000000002e-06 0 0  7.900000000000001e-06 0 0  8e-06 0 0  8.1e-06 0 0  8.200000000000001e-06 0 0  8.300000000000002e-06 0 0  8.400000000000001e-06 0 0  8.5e-06 0 0  8.600000000000001e-06 0 0  8.700000000000001e-06 0 0  8.8e-06 0 0  8.900000000000001e-06 0 0  9e-06 0 0  9.100000000000001e-06 0 0  9.2e-06 0 0  9.300000000000001e-06 0 0  9.400000000000001e-06 0 0  9.500000000000001e-06 0 0  9.600000000000001e-06 0 0  9.7e-06 0 0  9.800000000000001e-06 0 0  9.9e-06 0 0  1e-05 0 0  </DataArray>
</Points>
<Cells>
<DataArray  type="UInt32"  Name="connectivity"  format="ascii">0 1  1 2  2 3  3 4  4 5  5 6  6 7  7 8  8 9  9 10  10 11  11 12  12 13  13 14  14 15  15 16  16 17  17 18  18 19  19 20  20 21  21 22  22 23  23 24  24 25  25 26  26 27  27 28  28 29  29 30  30 31  31 32  32 33  33 34  34 35  35 36  36 37  37 38  38 39  39 40  40 41  41 42  42 43  43 44  44 45  45 46  46 47  47 48  48 49  49 50  50 51  51 52  52 53  53 54  54 55  55 56  56 57  57 58  58 59  59 60  60 61  61 62  62 63  63 64  64 65  65 66  66 67  67 68  68 69  69 70  70 71  71 72  72 73  73 74  74 75  75 76  76 77  77 78  78 79  79 80  80 81  81 82  82 83  83 84  84 85  85 86  86 87  87 88  88 89  89 90  90 91  91 92  92 93  93 94  94 95  95 96  96 97  97 98  98 99  99 100  </DataArray>
<DataArray  type="UInt32"  Name="offsets"  format="ascii">2 4 6 8 10 12 14 16 18 20 22 24 26 28 30 32 34 36 38 40 42 44 46 48 50 52 54 56 58 60 62 64 66 68 70 72 74 76 78 80 82 84 86 88 90 92 94 96 98 100 102 104 106 108 110 112 114 116 118 120 122 124 126 128 130 132 134 136 138 140 142 144 146 148 150 152 154 156 158 160 162 164 166 168 170 172 174 176 178 180 182 184 186 188 190 192 194 196 198 200 </DataArray>
<DataArray  type="UInt8"  Name="types"  format="ascii">3 3 3 3 3 3 3 3 3 3 3 3 3 3 3 3 3 3 3 3 3 3 3 3 3 3 3 3 3 3 3 3 3 3 3 3 3 3 3 3 3 3 3 3 3 3 3 3 3 3 3 3 3 3 3 3 3 3 3 3 3 3 3 3 3 3 3 3 3 3 3 3 3 3 3 3 3 3 3 3 3 3 3 3 3 3 3 3 3 3 3 3 3 3 3 3 3 3 3 3 </DataArray>
</Cells>
<PointData  Scalars="f_2012"> 
<DataArray  type="Float64"  Name="f_2012"  format="ascii">0.0000000000000000e+00  1.8325544701570768e-03  1.7541278171254089e-03  1.9124864364486068e-03  1.9679680918344758e-03  2.0160322527519028e-03  2.0443749434347659e-03  2.0636689578945088e-03  2.0760564201999479e-03  2.0841987389319610e-03  2.0894997233782920e-03  2.0929643854005254e-03  2.0952252416078592e-03  2.0967015231754963e-03  2.0976652402211397e-03  2.0982944243402345e-03  2.0987051828372273e-03  2.0989733486848311e-03  2.0991484208674007e-03  2.0992627171779162e-03  2.0993373357177398e-03  2.0993860505848501e-03  2.0994178541796815e-03  2.0994386172197830e-03  2.0994521724112445e-03  2.0994610219446119e-03  2.0994667993796986e-03  2.0994705711893376e-03  2.0994730336224257e-03  2.0994746412264526e-03  2.0994756907536452e-03  2.0994763759392826e-03  2.0994768232638246e-03  2.0994771153002752e-03  2.0994773059565728e-03  2.0994774304265956e-03  2.0994775116867158e-03  2.0994775647370551e-03  2.0994775993704098e-03  2.0994776219799365e-03  2.0994776367392791e-03  2.0994776463729966e-03  2.0994776526595108e-03  2.0994776567593780e-03  2.0994776594295355e-03  2.0994776611630269e-03  2.0994776622800184e-03  2.0994776629869108e-03  2.0994776634144369e-03  2.0994776636418110e-03  2.0994776637113521e-03  2.0994776636363080e-03  2.0994776634033143e-03  2.0994776629699318e-03  2.0994776622568329e-03  2.0994776611331640e-03  2.0994776593924146e-03  2.0994776567143064e-03  2.0994776526056871e-03  2.0994776463095204e-03  2.0994776366651553e-03  2.0994776218940863e-03  2.0994775992716889e-03  2.0994775646242607e-03  2.0994775115586155e-03  2.0994774302819435e-03  2.0994773057941376e-03  2.0994771151188717e-03  2.0994768230623438e-03  2.0994763757167263e-03  2.0994756905091576e-03  2.0994746409593664e-03  2.0994730333322911e-03  2.0994705708759546e-03  2.0994667990431623e-03  2.0994610215853268e-03  2.0994521720299605e-03  2.0994386168176060e-03  2.0994178537580986e-03  2.0993860501457187e-03  2.0993373352633112e-03  2.0992627167108007e-03  2.0991484203905742e-03  2.0989733482015983e-03  2.0987051823511968e-03  2.0982944238552769e-03  2.0976652397413469e-03  2.0967015227051256e-03  2.0952252411512800e-03  2.0929643849621577e-03  2.0894997229625343e-03  2.0841987385431327e-03  2.0760564198421924e-03  2.0636689575717930e-03  2.0443749431506048e-03  2.0160322525099180e-03  1.9679680916364381e-03  1.9124864362998601e-03  1.7541278170202642e-03  1.8325544701111064e-03  -2.5849394142281917e-19  </DataArray> 
</PointData> 
</Piece>
</UnstructuredGrid>
</VTKFile>