<?xml version="1.0"?>
<VTKFile type="UnstructuredGrid"  version="0.1"  >
<UnstructuredGrid>
<Piece  NumberOfPoints="101" NumberOfCells="100">
<Points>
<DataArray  type="Float64"  NumberOfComponents="3"  format="ascii">0 0 0  1e-07 0 0  2e-07 0 0  3e-07 0 0  4e-07 0 0  5e-07 0 0  6.000000000000001e-07 0 0  7.000000000000001e-07 0 0  8.000000000000001e-07 0 0  9.000000000000001e-07 0 0  1e-06 0 0  1.1e-06 0 0  1.2e-06 0 0  1.3e-06 0 0  1.4e-06 0 0  1.5e-06 0 0  1.6e-06 0 0  1.7e-06 0 0  1.8e-06 0 0  1.9e-06 0 0  2e-06 0 0  2.1e-06 0 0  2.2e-06 0 0  2.3e-06 0 0  2.4e-06 0 0  2.5e-06 0 0  2.600000000000001e-06 0 0  2.7e-06 0 0  2.8e-06 0 0  2.9e-06 0 0  3e-06 0 0  3.1e-06 0 0  3.2e-06 0 0  3.300000000000001e-06 0 0  3.4e-06 0 0  3.5e-06 0 0  3.6e-06 0 0  3.700000000000001e-06 0 0  3.8e-06 0 0  3.900000000000001e-06 0 0  4e-06 0 0  4.100000000000001e-06 0 0  4.2e-06 0 0  4.3e-06 0 0  4.4e-06 0 0  4.5e-06 0 0  4.6e-06 0 0  4.700000000000001e-06 0 0  4.800000000000001e-06 0 0  4.900000000000001e-06 0 0  5e-06 0 0  5.1e-06 0 0  5.200000000000001e-06 0 0  5.300000000000001e-06 0 0  5.4e-06 0 0  5.500000000000001e-06 0 0  5.600000000000001e-06 0 0  5.7e-06 0 0  5.8e-06 0 0  5.9e-06 0 0  6e-06 0 0  6.100000000000001e-06 0 0  6.2e-06 0 0  6.300000000000001e-06 0 0  6.400000000000001e-06 0 0  6.5e-06 0 0  6.600000000000001e-06 0 0  6.7e-06 0 0  6.8e-06 0 0  6.900000000000001e-06 0 0  7.000000000000001e-06 0 0  7.1e-06 0 0  7.200000000000001e-06 0 0  7.3e-06 0 0  7.400000000000001e-06 0 0  7.5e-06 0 0  7.6e-06 0 0  7.700000000000001e-06 0 0  7.800000000000002e-06 0 0  7.900000000000001e-06 0 0  8e-06 0 0  8.1e-06 0 0  8.200000000000001e-06 0 0  8.300000000000002e-06 0 0  8.400000000000001e-06 0 0  8.5e-06 0 0  8.600000000000001e-06 0 0  8.700000000000001e-06 0 0  8.8e-06 0 0  8.900000000000001e-06 0 0  9e-06 0 0  9.100000000000001e-06 0 0  9.2e-06 0 0  9.300000000000001e-06 0 0  9.400000000000001e-06 0 0  9.500000000000001e-06 0 0  9.600000000000001e-06 0 0  9.7e-06 0 0  9.800000000000001e-06 0 0  9.9e-06 0 0  1e-05 0 0  </DataArray>
</Points>
<Cells>
<DataArray  type="UInt32"  Name="connectivity"  format="ascii">0 1  1 2  2 3  3 4  4 5  5 6  6 7  7 8  8 9  9 10  10 11  11 12  12 13  13 14  14 15  15 16  16 17  17 18  18 19  19 20  20 21  21 22  22 23  23 24  24 25  25 26  26 27  27 28  28 29  29 30  30 31  31 32  32 33  33 34  34 35  35 36  36 37  37 38  38 39  39 40  40 41  41 42  42 43  43 44  44 45  45 46  46 47  47 48  48 49  49 50  50 51  51 52  52 53  53 54  54 55  55 56  56 57  57 58  58 59  59 60  60 61  61 62  62 63  63 64  64 65  65 66  66 67  67 68  68 69  69 70  70 71  71 72  72 73  73 74  74 75  75 76  76 77  77 78  78 79  79 80  80 81  81 82  82 83  83 84  84 85  85 86  86 87  87 88  88 89  89 90  90 91  91 92  92 93  93 94  94 95  95 96  96 97  97 98  98 99  99 100  </DataArray>
<DataArray  type="UInt32"  Name="offsets"  format="ascii">2 4 6 8 10 12 14 16 18 20 22 24 26 28 30 32 34 36 38 40 42 44 46 48 50 52 54 56 58 60 62 64 66 68 70 72 74 76 78 80 82 84 86 88 90 92 94 96 98 100 102 104 106 108 110 112 114 116 118 120 122 124 126 128 130 132 134 136 138 140 142 144 146 148 150 152 154 156 158 160 162 164 166 168 170 172 174 176 178 180 182 184 186 188 190 192 194 196 198 200 </DataArray>
<DataArray  type="UInt8"  Name="types"  format="ascii">3 3 3 3 3 3 3 3 3 3 3 3 3 3 3 3 3 3 3 3 3 3 3 3 3 3 3 3 3 3 3 3 3 3 3 3 3 3 3 3 3 3 3 3 3 3 3 3 3 3 3 3 3 3 3 3 3 3 3 3 3 3 3 3 3 3 3 3 3 3 3 3 3 3 3 3 3 3 3 3 3 3 3 3 3 3 3 3 3 3 3 3 3 3 3 3 3 3 3 3 </DataArray>
</Cells>
<PointData  Scalars="f_4597"> 
<DataArray  type="Float64"  Name="f_4597"  format="ascii">6.4623485355705251e-20  7.0542436401498652e-04  8.6148743691821827e-04  1.0087175763913144e-03  1.0959084663531621e-03  1.1574404625670279e-03  1.1984713448781360e-03  1.2265288215855688e-03  1.2455493258747292e-03  1.2584800811584250e-03  1.2672491387039834e-03  1.2731908244357794e-03  1.2772098409335362e-03  1.2799243388174058e-03  1.2817548452411513e-03  1.2829873810784804e-03  1.2838160649618639e-03  1.2843724412457194e-03  1.2847454899258600e-03  1.2849952991899304e-03  1.2851623796103228e-03  1.2852740000652459e-03  1.2853484885532388e-03  1.2853981462228991e-03  1.2854312180819154e-03  1.2854532234142708e-03  1.2854678524251107e-03  1.2854775695797759e-03  1.2854840189698872e-03  1.2854882962798327e-03  1.2854911310084224e-03  1.2854930084054729e-03  1.2854942509700664e-03  1.2854950728596725e-03  1.2854956161754856e-03  1.2854959751366106e-03  1.2854962121700872e-03  1.2854963686105120e-03  1.2854964718090056e-03  1.2854965398526280e-03  1.2854965846950126e-03  1.2854966142314985e-03  1.2854966336736029e-03  1.2854966464587029e-03  1.2854966548515561e-03  1.2854966603415693e-03  1.2854966639046627e-03  1.2854966661751995e-03  1.2854966675579780e-03  1.2854966682997978e-03  1.2854966685331695e-03  1.2854966682997976e-03  1.2854966675579782e-03  1.2854966661751993e-03  1.2854966639046627e-03  1.2854966603415691e-03  1.2854966548515561e-03  1.2854966464587029e-03  1.2854966336736026e-03  1.2854966142314976e-03  1.2854965846950117e-03  1.2854965398526263e-03  1.2854964718090043e-03  1.2854963686105107e-03  1.2854962121700859e-03  1.2854959751366097e-03  1.2854956161754858e-03  1.2854950728596703e-03  1.2854942509700664e-03  1.2854930084054733e-03  1.2854911310084217e-03  1.2854882962798327e-03  1.2854840189698866e-03  1.2854775695797765e-03  1.2854678524251101e-03  1.2854532234142701e-03  1.2854312180819157e-03  1.2853981462228987e-03  1.2853484885532388e-03  1.2852740000652465e-03  1.2851623796103237e-03  1.2849952991899304e-03  1.2847454899258608e-03  1.2843724412457194e-03  1.2838160649618639e-03  1.2829873810784808e-03  1.2817548452411520e-03  1.2799243388174071e-03  1.2772098409335369e-03  1.2731908244357798e-03  1.2672491387039837e-03  1.2584800811584252e-03  1.2455493258747294e-03  1.2265288215855693e-03  1.1984713448781360e-03  1.1574404625670281e-03  1.0959084663531616e-03  1.0087175763913152e-03  8.6148743691821827e-04  7.0542436401498977e-04  -6.4623485355704794e-20  </DataArray> 
</PointData> 
</Piece>
</UnstructuredGrid>
</VTKFile>