<?xml version="1.0"?>
<VTKFile type="UnstructuredGrid"  version="0.1"  >
<UnstructuredGrid>
<Piece  NumberOfPoints="101" NumberOfCells="100">
<Points>
<DataArray  type="Float64"  NumberOfComponents="3"  format="ascii">0 0 0  1e-07 0 0  2e-07 0 0  3e-07 0 0  4e-07 0 0  5e-07 0 0  6.000000000000001e-07 0 0  7.000000000000001e-07 0 0  8.000000000000001e-07 0 0  9.000000000000001e-07 0 0  1e-06 0 0  1.1e-06 0 0  1.2e-06 0 0  1.3e-06 0 0  1.4e-06 0 0  1.5e-06 0 0  1.6e-06 0 0  1.7e-06 0 0  1.8e-06 0 0  1.9e-06 0 0  2e-06 0 0  2.1e-06 0 0  2.2e-06 0 0  2.3e-06 0 0  2.4e-06 0 0  2.5e-06 0 0  2.600000000000001e-06 0 0  2.7e-06 0 0  2.8e-06 0 0  2.9e-06 0 0  3e-06 0 0  3.1e-06 0 0  3.2e-06 0 0  3.300000000000001e-06 0 0  3.4e-06 0 0  3.5e-06 0 0  3.6e-06 0 0  3.700000000000001e-06 0 0  3.8e-06 0 0  3.900000000000001e-06 0 0  4e-06 0 0  4.100000000000001e-06 0 0  4.2e-06 0 0  4.3e-06 0 0  4.4e-06 0 0  4.5e-06 0 0  4.6e-06 0 0  4.700000000000001e-06 0 0  4.800000000000001e-06 0 0  4.900000000000001e-06 0 0  5e-06 0 0  5.1e-06 0 0  5.200000000000001e-06 0 0  5.300000000000001e-06 0 0  5.4e-06 0 0  5.500000000000001e-06 0 0  5.600000000000001e-06 0 0  5.7e-06 0 0  5.8e-06 0 0  5.9e-06 0 0  6e-06 0 0  6.100000000000001e-06 0 0  6.2e-06 0 0  6.300000000000001e-06 0 0  6.400000000000001e-06 0 0  6.5e-06 0 0  6.600000000000001e-06 0 0  6.7e-06 0 0  6.8e-06 0 0  6.900000000000001e-06 0 0  7.000000000000001e-06 0 0  7.1e-06 0 0  7.200000000000001e-06 0 0  7.3e-06 0 0  7.400000000000001e-06 0 0  7.5e-06 0 0  7.6e-06 0 0  7.700000000000001e-06 0 0  7.800000000000002e-06 0 0  7.900000000000001e-06 0 0  8e-06 0 0  8.1e-06 0 0  8.200000000000001e-06 0 0  8.300000000000002e-06 0 0  8.400000000000001e-06 0 0  8.5e-06 0 0  8.600000000000001e-06 0 0  8.700000000000001e-06 0 0  8.8e-06 0 0  8.900000000000001e-06 0 0  9e-06 0 0  9.100000000000001e-06 0 0  9.2e-06 0 0  9.300000000000001e-06 0 0  9.400000000000001e-06 0 0  9.500000000000001e-06 0 0  9.600000000000001e-06 0 0  9.7e-06 0 0  9.800000000000001e-06 0 0  9.9e-06 0 0  1e-05 0 0  </DataArray>
</Points>
<Cells>
<DataArray  type="UInt32"  Name="connectivity"  format="ascii">0 1  1 2  2 3  3 4  4 5  5 6  6 7  7 8  8 9  9 10  10 11  11 12  12 13  13 14  14 15  15 16  16 17  17 18  18 19  19 20  20 21  21 22  22 23  23 24  24 25  25 26  26 27  27 28  28 29  29 30  30 31  31 32  32 33  33 34  34 35  35 36  36 37  37 38  38 39  39 40  40 41  41 42  42 43  43 44  44 45  45 46  46 47  47 48  48 49  49 50  50 51  51 52  52 53  53 54  54 55  55 56  56 57  57 58  58 59  59 60  60 61  61 62  62 63  63 64  64 65  65 66  66 67  67 68  68 69  69 70  70 71  71 72  72 73  73 74  74 75  75 76  76 77  77 78  78 79  79 80  80 81  81 82  82 83  83 84  84 85  85 86  86 87  87 88  88 89  89 90  90 91  91 92  92 93  93 94  94 95  95 96  96 97  97 98  98 99  99 100  </DataArray>
<DataArray  type="UInt32"  Name="offsets"  format="ascii">2 4 6 8 10 12 14 16 18 20 22 24 26 28 30 32 34 36 38 40 42 44 46 48 50 52 54 56 58 60 62 64 66 68 70 72 74 76 78 80 82 84 86 88 90 92 94 96 98 100 102 104 106 108 110 112 114 116 118 120 122 124 126 128 130 132 134 136 138 140 142 144 146 148 150 152 154 156 158 160 162 164 166 168 170 172 174 176 178 180 182 184 186 188 190 192 194 196 198 200 </DataArray>
<DataArray  type="UInt8"  Name="types"  format="ascii">3 3 3 3 3 3 3 3 3 3 3 3 3 3 3 3 3 3 3 3 3 3 3 3 3 3 3 3 3 3 3 3 3 3 3 3 3 3 3 3 3 3 3 3 3 3 3 3 3 3 3 3 3 3 3 3 3 3 3 3 3 3 3 3 3 3 3 3 3 3 3 3 3 3 3 3 3 3 3 3 3 3 3 3 3 3 3 3 3 3 3 3 3 3 3 3 3 3 3 3 </DataArray>
</Cells>
<PointData  Scalars="f_4542"> 
<DataArray  type="Float64"  Name="f_4542"  format="ascii">-6.4623485355705251e-20  8.7171413538444345e-04  1.0527094102494756e-03  1.2194723504736673e-03  1.3136144341047127e-03  1.3788568191009762e-03  1.4213425267830173e-03  1.4499301647166347e-03  1.4689996759171455e-03  1.4817852732525458e-03  1.4903428847331339e-03  1.4960717170668667e-03  1.4999029138909696e-03  1.5024630311198143e-03  1.5041720513544151e-03  1.5053118109730570e-03  1.5060711752881055e-03  1.5065766182448966e-03  1.5069127361282747e-03  1.5071360551226424e-03  1.5072843039858233e-03  1.5073826386031866e-03  1.5074478146646906e-03  1.5074909817975252e-03  1.5075195522930534e-03  1.5075384494787397e-03  1.5075509407255429e-03  1.5075591926924175e-03  1.5075646410443607e-03  1.5075682363933772e-03  1.5075706077491975e-03  1.5075721710517912e-03  1.5075732011776779e-03  1.5075738796750436e-03  1.5075743263851255e-03  1.5075746203744660e-03  1.5075748137820461e-03  1.5075749409736239e-03  1.5075750245900242e-03  1.5075750795409465e-03  1.5075751156406977e-03  1.5075751393467487e-03  1.5075751549058572e-03  1.5075751651092283e-03  1.5075751717897137e-03  1.5075751761488470e-03  1.5075751789715649e-03  1.5075751807666932e-03  1.5075751818581246e-03  1.5075751824429428e-03  1.5075751826268060e-03  1.5075751824429424e-03  1.5075751818581255e-03  1.5075751807666923e-03  1.5075751789715660e-03  1.5075751761488459e-03  1.5075751717897132e-03  1.5075751651092283e-03  1.5075751549058567e-03  1.5075751393467476e-03  1.5075751156406973e-03  1.5075750795409445e-03  1.5075750245900242e-03  1.5075749409736226e-03  1.5075748137820450e-03  1.5075746203744658e-03  1.5075743263851251e-03  1.5075738796750430e-03  1.5075732011776771e-03  1.5075721710517910e-03  1.5075706077491966e-03  1.5075682363933785e-03  1.5075646410443605e-03  1.5075591926924164e-03  1.5075509407255435e-03  1.5075384494787395e-03  1.5075195522930539e-03  1.5074909817975246e-03  1.5074478146646908e-03  1.5073826386031875e-03  1.5072843039858239e-03  1.5071360551226431e-03  1.5069127361282755e-03  1.5065766182448964e-03  1.5060711752881057e-03  1.5053118109730574e-03  1.5041720513544155e-03  1.5024630311198154e-03  1.4999029138909694e-03  1.4960717170668673e-03  1.4903428847331333e-03  1.4817852732525478e-03  1.4689996759171460e-03  1.4499301647166356e-03  1.4213425267830162e-03  1.3788568191009771e-03  1.3136144341047117e-03  1.2194723504736684e-03  1.0527094102494743e-03  8.7171413538444692e-04  6.4623485355704794e-20  </DataArray> 
</PointData> 
</Piece>
</UnstructuredGrid>
</VTKFile>