<?xml version="1.0"?>
<VTKFile type="UnstructuredGrid"  version="0.1"  >
<UnstructuredGrid>
<Piece  NumberOfPoints="101" NumberOfCells="100">
<Points>
<DataArray  type="Float64"  NumberOfComponents="3"  format="ascii">0 0 0  1e-07 0 0  2e-07 0 0  3e-07 0 0  4e-07 0 0  5e-07 0 0  6.000000000000001e-07 0 0  7.000000000000001e-07 0 0  8.000000000000001e-07 0 0  9.000000000000001e-07 0 0  1e-06 0 0  1.1e-06 0 0  1.2e-06 0 0  1.3e-06 0 0  1.4e-06 0 0  1.5e-06 0 0  1.6e-06 0 0  1.7e-06 0 0  1.8e-06 0 0  1.9e-06 0 0  2e-06 0 0  2.1e-06 0 0  2.2e-06 0 0  2.3e-06 0 0  2.4e-06 0 0  2.5e-06 0 0  2.600000000000001e-06 0 0  2.7e-06 0 0  2.8e-06 0 0  2.9e-06 0 0  3e-06 0 0  3.1e-06 0 0  3.2e-06 0 0  3.300000000000001e-06 0 0  3.4e-06 0 0  3.5e-06 0 0  3.6e-06 0 0  3.700000000000001e-06 0 0  3.8e-06 0 0  3.900000000000001e-06 0 0  4e-06 0 0  4.100000000000001e-06 0 0  4.2e-06 0 0  4.3e-06 0 0  4.4e-06 0 0  4.5e-06 0 0  4.6e-06 0 0  4.700000000000001e-06 0 0  4.800000000000001e-06 0 0  4.900000000000001e-06 0 0  5e-06 0 0  5.1e-06 0 0  5.200000000000001e-06 0 0  5.300000000000001e-06 0 0  5.4e-06 0 0  5.500000000000001e-06 0 0  5.600000000000001e-06 0 0  5.7e-06 0 0  5.8e-06 0 0  5.9e-06 0 0  6e-06 0 0  6.100000000000001e-06 0 0  6.2e-06 0 0  6.300000000000001e-06 0 0  6.400000000000001e-06 0 0  6.5e-06 0 0  6.600000000000001e-06 0 0  6.7e-06 0 0  6.8e-06 0 0  6.900000000000001e-06 0 0  7.000000000000001e-06 0 0  7.1e-06 0 0  7.200000000000001e-06 0 0  7.3e-06 0 0  7.400000000000001e-06 0 0  7.5e-06 0 0  7.6e-06 0 0  7.700000000000001e-06 0 0  7.800000000000002e-06 0 0  7.900000000000001e-06 0 0  8e-06 0 0  8.1e-06 0 0  8.200000000000001e-06 0 0  8.300000000000002e-06 0 0  8.400000000000001e-06 0 0  8.5e-06 0 0  8.600000000000001e-06 0 0  8.700000000000001e-06 0 0  8.8e-06 0 0  8.900000000000001e-06 0 0  9e-06 0 0  9.100000000000001e-06 0 0  9.2e-06 0 0  9.300000000000001e-06 0 0  9.400000000000001e-06 0 0  9.500000000000001e-06 0 0  9.600000000000001e-06 0 0  9.7e-06 0 0  9.800000000000001e-06 0 0  9.9e-06 0 0  1e-05 0 0  </DataArray>
</Points>
<Cells>
<DataArray  type="UInt32"  Name="connectivity"  format="ascii">0 1  1 2  2 3  3 4  4 5  5 6  6 7  7 8  8 9  9 10  10 11  11 12  12 13  13 14  14 15  15 16  16 17  17 18  18 19  19 20  20 21  21 22  22 23  23 24  24 25  25 26  26 27  27 28  28 29  29 30  30 31  31 32  32 33  33 34  34 35  35 36  36 37  37 38  38 39  39 40  40 41  41 42  42 43  43 44  44 45  45 46  46 47  47 48  48 49  49 50  50 51  51 52  52 53  53 54  54 55  55 56  56 57  57 58  58 59  59 60  60 61  61 62  62 63  63 64  64 65  65 66  66 67  67 68  68 69  69 70  70 71  71 72  72 73  73 74  74 75  75 76  76 77  77 78  78 79  79 80  80 81  81 82  82 83  83 84  84 85  85 86  86 87  87 88  88 89  89 90  90 91  91 92  92 93  93 94  94 95  95 96  96 97  97 98  98 99  99 100  </DataArray>
<DataArray  type="UInt32"  Name="offsets"  format="ascii">2 4 6 8 10 12 14 16 18 20 22 24 26 28 30 32 34 36 38 40 42 44 46 48 50 52 54 56 58 60 62 64 66 68 70 72 74 76 78 80 82 84 86 88 90 92 94 96 98 100 102 104 106 108 110 112 114 116 118 120 122 124 126 128 130 132 134 136 138 140 142 144 146 148 150 152 154 156 158 160 162 164 166 168 170 172 174 176 178 180 182 184 186 188 190 192 194 196 198 200 </DataArray>
<DataArray  type="UInt8"  Name="types"  format="ascii">3 3 3 3 3 3 3 3 3 3 3 3 3 3 3 3 3 3 3 3 3 3 3 3 3 3 3 3 3 3 3 3 3 3 3 3 3 3 3 3 3 3 3 3 3 3 3 3 3 3 3 3 3 3 3 3 3 3 3 3 3 3 3 3 3 3 3 3 3 3 3 3 3 3 3 3 3 3 3 3 3 3 3 3 3 3 3 3 3 3 3 3 3 3 3 3 3 3 3 3 </DataArray>
</Cells>
<PointData  Scalars="f_5202"> 
<DataArray  type="Float64"  Name="f_5202"  format="ascii">-1.2621774483536182e-22  8.9805613863204005e-07  1.7684416415883271e-06  2.5874572957087993e-06  3.3374174916839177e-06  4.0074337100151615e-06  4.5929691059679934e-06  5.0947159240657588e-06  5.5172057794929395e-06  5.8674525107798573e-06  6.1537906880436692e-06  6.3849752525510257e-06  6.5695436634360001e-06  6.7154076756467640e-06  6.8296279844604070e-06  6.9183237224110555e-06  6.9866741995466764e-06  7.0389783991828896e-06  7.0787462157238254e-06  7.1088030187593305e-06  7.1313953443277569e-06  7.1482902714915000e-06  7.1608644812964655e-06  7.1701813470943846e-06  7.1770559169959795e-06  7.1821085451798194e-06  7.1858083948695374e-06  7.1885082167617164e-06  7.1904718096950436e-06  7.1918954712606751e-06  7.1929245962376648e-06  7.1936664133114009e-06  7.1941996855520055e-06  7.1945820486749529e-06  7.1948555283440207e-06  7.1950506651691686e-06  7.1951895828859345e-06  7.1952882596208856e-06  7.1953582018015499e-06  7.1954076727261068e-06  7.1954425907723376e-06  7.1954671836558178e-06  7.1954844632945312e-06  7.1954965692462711e-06  7.1955050161705386e-06  7.1955108713784841e-06  7.1955148815227719e-06  7.1955175622566153e-06  7.1955192608029804e-06  7.1955201984678025e-06  7.1955204979336557e-06  7.1955201984678067e-06  7.1955192608029813e-06  7.1955175622566170e-06  7.1955148815227668e-06  7.1955108713784773e-06  7.1955050161705301e-06  7.1954965692462610e-06  7.1954844632945185e-06  7.1954671836558026e-06  7.1954425907723173e-06  7.1954076727260822e-06  7.1953582018015262e-06  7.1952882596208627e-06  7.1951895828859167e-06  7.1950506651691500e-06  7.1948555283440029e-06  7.1945820486749377e-06  7.1941996855519954e-06  7.1936664133113942e-06  7.1929245962376623e-06  7.1918954712606726e-06  7.1904718096950462e-06  7.1885082167617139e-06  7.1858083948695374e-06  7.1821085451798185e-06  7.1770559169959829e-06  7.1701813470943846e-06  7.1608644812964756e-06  7.1482902714915067e-06  7.1313953443277705e-06  7.1088030187593364e-06  7.0787462157238398e-06  7.0389783991829040e-06  6.9866741995466900e-06  6.9183237224110665e-06  6.8296279844604188e-06  6.7154076756467750e-06  6.5695436634360111e-06  6.3849752525510325e-06  6.1537906880436819e-06  5.8674525107798633e-06  5.5172057794929454e-06  5.0947159240657648e-06  4.5929691059679901e-06  4.0074337100151641e-06  3.3374174916839165e-06  2.5874572957088018e-06  1.7684416415883258e-06  8.9805613863204662e-07  1.8932661725304138e-22  </DataArray> 
</PointData> 
</Piece>
</UnstructuredGrid>
</VTKFile>