<?xml version="1.0"?>
<VTKFile type="UnstructuredGrid"  version="0.1"  >
<UnstructuredGrid>
<Piece  NumberOfPoints="101" NumberOfCells="100">
<Points>
<DataArray  type="Float64"  NumberOfComponents="3"  format="ascii">0 0 0  1e-07 0 0  2e-07 0 0  3e-07 0 0  4e-07 0 0  5e-07 0 0  6.000000000000001e-07 0 0  7.000000000000001e-07 0 0  8.000000000000001e-07 0 0  9.000000000000001e-07 0 0  1e-06 0 0  1.1e-06 0 0  1.2e-06 0 0  1.3e-06 0 0  1.4e-06 0 0  1.5e-06 0 0  1.6e-06 0 0  1.7e-06 0 0  1.8e-06 0 0  1.9e-06 0 0  2e-06 0 0  2.1e-06 0 0  2.2e-06 0 0  2.3e-06 0 0  2.4e-06 0 0  2.5e-06 0 0  2.600000000000001e-06 0 0  2.7e-06 0 0  2.8e-06 0 0  2.9e-06 0 0  3e-06 0 0  3.1e-06 0 0  3.2e-06 0 0  3.300000000000001e-06 0 0  3.4e-06 0 0  3.5e-06 0 0  3.6e-06 0 0  3.700000000000001e-06 0 0  3.8e-06 0 0  3.900000000000001e-06 0 0  4e-06 0 0  4.100000000000001e-06 0 0  4.2e-06 0 0  4.3e-06 0 0  4.4e-06 0 0  4.5e-06 0 0  4.6e-06 0 0  4.700000000000001e-06 0 0  4.800000000000001e-06 0 0  4.900000000000001e-06 0 0  5e-06 0 0  5.1e-06 0 0  5.200000000000001e-06 0 0  5.300000000000001e-06 0 0  5.4e-06 0 0  5.500000000000001e-06 0 0  5.600000000000001e-06 0 0  5.7e-06 0 0  5.8e-06 0 0  5.9e-06 0 0  6e-06 0 0  6.100000000000001e-06 0 0  6.2e-06 0 0  6.300000000000001e-06 0 0  6.400000000000001e-06 0 0  6.5e-06 0 0  6.600000000000001e-06 0 0  6.7e-06 0 0  6.8e-06 0 0  6.900000000000001e-06 0 0  7.000000000000001e-06 0 0  7.1e-06 0 0  7.200000000000001e-06 0 0  7.3e-06 0 0  7.400000000000001e-06 0 0  7.5e-06 0 0  7.6e-06 0 0  7.700000000000001e-06 0 0  7.800000000000002e-06 0 0  7.900000000000001e-06 0 0  8e-06 0 0  8.1e-06 0 0  8.200000000000001e-06 0 0  8.300000000000002e-06 0 0  8.400000000000001e-06 0 0  8.5e-06 0 0  8.600000000000001e-06 0 0  8.700000000000001e-06 0 0  8.8e-06 0 0  8.900000000000001e-06 0 0  9e-06 0 0  9.100000000000001e-06 0 0  9.2e-06 0 0  9.300000000000001e-06 0 0  9.400000000000001e-06 0 0  9.500000000000001e-06 0 0  9.600000000000001e-06 0 0  9.7e-06 0 0  9.800000000000001e-06 0 0  9.9e-06 0 0  1e-05 0 0  </DataArray>
</Points>
<Cells>
<DataArray  type="UInt32"  Name="connectivity"  format="ascii">0 1  1 2  2 3  3 4  4 5  5 6  6 7  7 8  8 9  9 10  10 11  11 12  12 13  13 14  14 15  15 16  16 17  17 18  18 19  19 20  20 21  21 22  22 23  23 24  24 25  25 26  26 27  27 28  28 29  29 30  30 31  31 32  32 33  33 34  34 35  35 36  36 37  37 38  38 39  39 40  40 41  41 42  42 43  43 44  44 45  45 46  46 47  47 48  48 49  49 50  50 51  51 52  52 53  53 54  54 55  55 56  56 57  57 58  58 59  59 60  60 61  61 62  62 63  63 64  64 65  65 66  66 67  67 68  68 69  69 70  70 71  71 72  72 73  73 74  74 75  75 76  76 77  77 78  78 79  79 80  80 81  81 82  82 83  83 84  84 85  85 86  86 87  87 88  88 89  89 90  90 91  91 92  92 93  93 94  94 95  95 96  96 97  97 98  98 99  99 100  </DataArray>
<DataArray  type="UInt32"  Name="offsets"  format="ascii">2 4 6 8 10 12 14 16 18 20 22 24 26 28 30 32 34 36 38 40 42 44 46 48 50 52 54 56 58 60 62 64 66 68 70 72 74 76 78 80 82 84 86 88 90 92 94 96 98 100 102 104 106 108 110 112 114 116 118 120 122 124 126 128 130 132 134 136 138 140 142 144 146 148 150 152 154 156 158 160 162 164 166 168 170 172 174 176 178 180 182 184 186 188 190 192 194 196 198 200 </DataArray>
<DataArray  type="UInt8"  Name="types"  format="ascii">3 3 3 3 3 3 3 3 3 3 3 3 3 3 3 3 3 3 3 3 3 3 3 3 3 3 3 3 3 3 3 3 3 3 3 3 3 3 3 3 3 3 3 3 3 3 3 3 3 3 3 3 3 3 3 3 3 3 3 3 3 3 3 3 3 3 3 3 3 3 3 3 3 3 3 3 3 3 3 3 3 3 3 3 3 3 3 3 3 3 3 3 3 3 3 3 3 3 3 3 </DataArray>
</Cells>
<PointData  Scalars="f_1462"> 
<DataArray  type="Float64"  Name="f_1462"  format="ascii">2.5849394142282100e-19  1.8325556784530652e-03  1.7541304544152580e-03  1.9124900191738777e-03  1.9679725531160409e-03  2.0160372884734678e-03  2.0443803148436669e-03  2.0636744233282216e-03  2.0760617764167214e-03  2.0842038236981255e-03  2.0895044199897767e-03  2.0929686205024859e-03  2.0952289799981896e-03  2.0967047607146566e-03  2.0976679961571014e-03  2.0982967339793707e-03  2.0987070911350322e-03  2.0989749050437860e-03  2.0991496752019133e-03  2.0992637171593992e-03  2.0993381250291334e-03  2.0993866679805849e-03  2.0994183331477841e-03  2.0994389860638555e-03  2.0994524546010976e-03  2.0994612366176755e-03  2.0994669619068341e-03  2.0994706937455775e-03  2.0994731257248643e-03  2.0994747102178490e-03  2.0994757422220928e-03  2.0994764140721193e-03  2.0994768511389027e-03  2.0994771351204003e-03  2.0994773192340708e-03  2.0994774381251288e-03  2.0994775143269471e-03  2.0994775624719824e-03  2.0994775920351043e-03  2.0994776091194317e-03  2.0994776176172457e-03  2.0994776199628556e-03  2.0994776176185845e-03  2.0994776113857474e-03  2.0994776016001822e-03  2.0994775882508011e-03  2.0994775710457699e-03  2.0994775494418143e-03  2.0994775226461150e-03  2.0994774895962231e-03  2.0994774489207775e-03  2.0994773988820140e-03  2.0994773372999382e-03  2.0994772614574215e-03  2.0994771679852860e-03  2.0994770527266002e-03  2.0994769105799212e-03  2.0994767353219035e-03  2.0994765194102356e-03  2.0994762537681079e-03  2.0994759275498702e-03  2.0994755278837592e-03  2.0994750395783575e-03  2.0994744447625099e-03  2.0994737223980812e-03  2.0994728475545940e-03  2.0994717902537425e-03  2.0994705135649262e-03  2.0994689704380417e-03  2.0994670984637860e-03  2.0994648113054197e-03  2.0994619848747312e-03  2.0994584353150061e-03  2.0994538843305583e-03  2.0994479050962405e-03  2.0994398384753888e-03  2.0994286639285159e-03  2.0994128013180702e-03  2.0993898072829758e-03  2.0993559106376220e-03  2.0993053017436627e-03  2.0992290455934394e-03  2.0991134187870156e-03  2.0989373647950669e-03  2.0986685966860592e-03  2.0982576350348681e-03  2.0976286555180034e-03  2.0966655497904386e-03  2.0951902772756294e-03  2.0929308129365005e-03  2.0894679064170909e-03  2.0841690195957637e-03  2.0760291158658023e-03  2.0636443641607266e-03  2.0443533174714494e-03  2.0160138582378971e-03  1.9679530523393565e-03  1.9124751483567096e-03  1.7541198418956827e-03  1.8325509842660162e-03  2.5849394142281917e-19  </DataArray> 
</PointData> 
</Piece>
</UnstructuredGrid>
</VTKFile>