<?xml version="1.0"?>
<VTKFile type="UnstructuredGrid"  version="0.1"  >
<UnstructuredGrid>
<Piece  NumberOfPoints="101" NumberOfCells="100">
<Points>
<DataArray  type="Float64"  NumberOfComponents="3"  format="ascii">0 0 0  1e-07 0 0  2e-07 0 0  3e-07 0 0  4e-07 0 0  5e-07 0 0  6.000000000000001e-07 0 0  7.000000000000001e-07 0 0  8.000000000000001e-07 0 0  9.000000000000001e-07 0 0  1e-06 0 0  1.1e-06 0 0  1.2e-06 0 0  1.3e-06 0 0  1.4e-06 0 0  1.5e-06 0 0  1.6e-06 0 0  1.7e-06 0 0  1.8e-06 0 0  1.9e-06 0 0  2e-06 0 0  2.1e-06 0 0  2.2e-06 0 0  2.3e-06 0 0  2.4e-06 0 0  2.5e-06 0 0  2.600000000000001e-06 0 0  2.7e-06 0 0  2.8e-06 0 0  2.9e-06 0 0  3e-06 0 0  3.1e-06 0 0  3.2e-06 0 0  3.300000000000001e-06 0 0  3.4e-06 0 0  3.5e-06 0 0  3.6e-06 0 0  3.700000000000001e-06 0 0  3.8e-06 0 0  3.900000000000001e-06 0 0  4e-06 0 0  4.100000000000001e-06 0 0  4.2e-06 0 0  4.3e-06 0 0  4.4e-06 0 0  4.5e-06 0 0  4.6e-06 0 0  4.700000000000001e-06 0 0  4.800000000000001e-06 0 0  4.900000000000001e-06 0 0  5e-06 0 0  5.1e-06 0 0  5.200000000000001e-06 0 0  5.300000000000001e-06 0 0  5.4e-06 0 0  5.500000000000001e-06 0 0  5.600000000000001e-06 0 0  5.7e-06 0 0  5.8e-06 0 0  5.9e-06 0 0  6e-06 0 0  6.100000000000001e-06 0 0  6.2e-06 0 0  6.300000000000001e-06 0 0  6.400000000000001e-06 0 0  6.5e-06 0 0  6.600000000000001e-06 0 0  6.7e-06 0 0  6.8e-06 0 0  6.900000000000001e-06 0 0  7.000000000000001e-06 0 0  7.1e-06 0 0  7.200000000000001e-06 0 0  7.3e-06 0 0  7.400000000000001e-06 0 0  7.5e-06 0 0  7.6e-06 0 0  7.700000000000001e-06 0 0  7.800000000000002e-06 0 0  7.900000000000001e-06 0 0  8e-06 0 0  8.1e-06 0 0  8.200000000000001e-06 0 0  8.300000000000002e-06 0 0  8.400000000000001e-06 0 0  8.5e-06 0 0  8.600000000000001e-06 0 0  8.700000000000001e-06 0 0  8.8e-06 0 0  8.900000000000001e-06 0 0  9e-06 0 0  9.100000000000001e-06 0 0  9.2e-06 0 0  9.300000000000001e-06 0 0  9.400000000000001e-06 0 0  9.500000000000001e-06 0 0  9.600000000000001e-06 0 0  9.7e-06 0 0  9.800000000000001e-06 0 0  9.9e-06 0 0  1e-05 0 0  </DataArray>
</Points>
<Cells>
<DataArray  type="UInt32"  Name="connectivity"  format="ascii">0 1  1 2  2 3  3 4  4 5  5 6  6 7  7 8  8 9  9 10  10 11  11 12  12 13  13 14  14 15  15 16  16 17  17 18  18 19  19 20  20 21  21 22  22 23  23 24  24 25  25 26  26 27  27 28  28 29  29 30  30 31  31 32  32 33  33 34  34 35  35 36  36 37  37 38  38 39  39 40  40 41  41 42  42 43  43 44  44 45  45 46  46 47  47 48  48 49  49 50  50 51  51 52  52 53  53 54  54 55  55 56  56 57  57 58  58 59  59 60  60 61  61 62  62 63  63 64  64 65  65 66  66 67  67 68  68 69  69 70  70 71  71 72  72 73  73 74  74 75  75 76  76 77  77 78  78 79  79 80  80 81  81 82  82 83  83 84  84 85  85 86  86 87  87 88  88 89  89 90  90 91  91 92  92 93  93 94  94 95  95 96  96 97  97 98  98 99  99 100  </DataArray>
<DataArray  type="UInt32"  Name="offsets"  format="ascii">2 4 6 8 10 12 14 16 18 20 22 24 26 28 30 32 34 36 38 40 42 44 46 48 50 52 54 56 58 60 62 64 66 68 70 72 74 76 78 80 82 84 86 88 90 92 94 96 98 100 102 104 106 108 110 112 114 116 118 120 122 124 126 128 130 132 134 136 138 140 142 144 146 148 150 152 154 156 158 160 162 164 166 168 170 172 174 176 178 180 182 184 186 188 190 192 194 196 198 200 </DataArray>
<DataArray  type="UInt8"  Name="types"  format="ascii">3 3 3 3 3 3 3 3 3 3 3 3 3 3 3 3 3 3 3 3 3 3 3 3 3 3 3 3 3 3 3 3 3 3 3 3 3 3 3 3 3 3 3 3 3 3 3 3 3 3 3 3 3 3 3 3 3 3 3 3 3 3 3 3 3 3 3 3 3 3 3 3 3 3 3 3 3 3 3 3 3 3 3 3 3 3 3 3 3 3 3 3 3 3 3 3 3 3 3 3 </DataArray>
</Cells>
<PointData  Scalars="f_1187"> 
<DataArray  type="Float64"  Name="f_1187"  format="ascii">1.2924697071141050e-19  1.8350174149500320e-03  1.7571182827545277e-03  1.9163236484303682e-03  1.9716349241533748e-03  2.0193822178258842e-03  2.0471998743767273e-03  2.0659614844267308e-03  2.0778517986146158e-03  2.0855698926132032e-03  2.0905251752803295e-03  2.0937185776110042e-03  2.0957722383269563e-03  2.0970936532468246e-03  2.0979435975396637e-03  2.0984903861489567e-03  2.0988421849534302e-03  2.0990685933379659e-03  2.0992143563667840e-03  2.0993082461105341e-03  2.0993687618663789e-03  2.0994077996437542e-03  2.0994330101350876e-03  2.0994493145510751e-03  2.0994598787779273e-03  2.0994667395256008e-03  2.0994712068406400e-03  2.0994741229334399e-03  2.0994760286722346e-03  2.0994772707301598e-03  2.0994780705696405e-03  2.0994785688678388e-03  2.0994788541175567e-03  2.0994789810107844e-03  2.0994789822041744e-03  2.0994788757773635e-03  2.0994786698689118e-03  2.0994783654456487e-03  2.0994779578224839e-03  2.0994774373327254e-03  2.0994767894089417e-03  2.0994759942429839e-03  2.0994750261321767e-03  2.0994738525753030e-03  2.0994724331492689e-03  2.0994707181702849e-03  2.0994686471189593e-03  2.0994661467835483e-03  2.0994631290465506e-03  2.0994594882012335e-03  2.0994550976275524e-03  2.0994498055676046e-03  2.0994434295978702e-03  2.0994357491713952e-03  2.0994264952631345e-03  2.0994153356626130e-03  2.0994018537978713e-03  2.0993855181541603e-03  2.0993656384398402e-03  2.0993413038109224e-03  2.0993112979731257e-03  2.0992739862447630e-03  2.0992271712059760e-03  2.0991679169504707e-03  2.0990923477096145e-03  2.0989954350597315e-03  2.0988707990740926e-03  2.0987105623069043e-03  2.0985053106579573e-03  2.0982442305507993e-03  2.0979155046626096e-03  2.0975070534097221e-03  2.0970076978944667e-03  2.0964087799691996e-03  2.0957061929478588e-03  2.0949026423405371e-03  2.0940097766786064e-03  2.0930496377909707e-03  2.0920548042007527e-03  2.0910666763332506e-03  2.0901316552016805e-03  2.0892941273444785e-03  2.0885863167002675e-03  2.0880172981760153e-03  2.0875643252656192e-03  2.0871671842595651e-03  2.0867238532452930e-03  2.0860837090427879e-03  2.0850331508846763e-03  2.0832698640038637e-03  2.0803543871385473e-03  2.0756465347977811e-03  2.0681454314047504e-03  2.0564619575202869e-03  2.0379506321088637e-03  2.0104940227940443e-03  1.9633997560825046e-03  1.9090254176499211e-03  1.7517560222402829e-03  1.8313993912341762e-03  1.2924697071140959e-19  </DataArray> 
</PointData> 
</Piece>
</UnstructuredGrid>
</VTKFile>