<?xml version="1.0"?>
<VTKFile type="UnstructuredGrid"  version="0.1"  >
<UnstructuredGrid>
<Piece  NumberOfPoints="101" NumberOfCells="100">
<Points>
<DataArray  type="Float64"  NumberOfComponents="3"  format="ascii">0 0 0  1e-07 0 0  2e-07 0 0  3e-07 0 0  4e-07 0 0  5e-07 0 0  6.000000000000001e-07 0 0  7.000000000000001e-07 0 0  8.000000000000001e-07 0 0  9.000000000000001e-07 0 0  1e-06 0 0  1.1e-06 0 0  1.2e-06 0 0  1.3e-06 0 0  1.4e-06 0 0  1.5e-06 0 0  1.6e-06 0 0  1.7e-06 0 0  1.8e-06 0 0  1.9e-06 0 0  2e-06 0 0  2.1e-06 0 0  2.2e-06 0 0  2.3e-06 0 0  2.4e-06 0 0  2.5e-06 0 0  2.600000000000001e-06 0 0  2.7e-06 0 0  2.8e-06 0 0  2.9e-06 0 0  3e-06 0 0  3.1e-06 0 0  3.2e-06 0 0  3.300000000000001e-06 0 0  3.4e-06 0 0  3.5e-06 0 0  3.6e-06 0 0  3.700000000000001e-06 0 0  3.8e-06 0 0  3.900000000000001e-06 0 0  4e-06 0 0  4.100000000000001e-06 0 0  4.2e-06 0 0  4.3e-06 0 0  4.4e-06 0 0  4.5e-06 0 0  4.6e-06 0 0  4.700000000000001e-06 0 0  4.800000000000001e-06 0 0  4.900000000000001e-06 0 0  5e-06 0 0  5.1e-06 0 0  5.200000000000001e-06 0 0  5.300000000000001e-06 0 0  5.4e-06 0 0  5.500000000000001e-06 0 0  5.600000000000001e-06 0 0  5.7e-06 0 0  5.8e-06 0 0  5.9e-06 0 0  6e-06 0 0  6.100000000000001e-06 0 0  6.2e-06 0 0  6.300000000000001e-06 0 0  6.400000000000001e-06 0 0  6.5e-06 0 0  6.600000000000001e-06 0 0  6.7e-06 0 0  6.8e-06 0 0  6.900000000000001e-06 0 0  7.000000000000001e-06 0 0  7.1e-06 0 0  7.200000000000001e-06 0 0  7.3e-06 0 0  7.400000000000001e-06 0 0  7.5e-06 0 0  7.6e-06 0 0  7.700000000000001e-06 0 0  7.800000000000002e-06 0 0  7.900000000000001e-06 0 0  8e-06 0 0  8.1e-06 0 0  8.200000000000001e-06 0 0  8.300000000000002e-06 0 0  8.400000000000001e-06 0 0  8.5e-06 0 0  8.600000000000001e-06 0 0  8.700000000000001e-06 0 0  8.8e-06 0 0  8.900000000000001e-06 0 0  9e-06 0 0  9.100000000000001e-06 0 0  9.2e-06 0 0  9.300000000000001e-06 0 0  9.400000000000001e-06 0 0  9.500000000000001e-06 0 0  9.600000000000001e-06 0 0  9.7e-06 0 0  9.800000000000001e-06 0 0  9.9e-06 0 0  1e-05 0 0  </DataArray>
</Points>
<Cells>
<DataArray  type="UInt32"  Name="connectivity"  format="ascii">0 1  1 2  2 3  3 4  4 5  5 6  6 7  7 8  8 9  9 10  10 11  11 12  12 13  13 14  14 15  15 16  16 17  17 18  18 19  19 20  20 21  21 22  22 23  23 24  24 25  25 26  26 27  27 28  28 29  29 30  30 31  31 32  32 33  33 34  34 35  35 36  36 37  37 38  38 39  39 40  40 41  41 42  42 43  43 44  44 45  45 46  46 47  47 48  48 49  49 50  50 51  51 52  52 53  53 54  54 55  55 56  56 57  57 58  58 59  59 60  60 61  61 62  62 63  63 64  64 65  65 66  66 67  67 68  68 69  69 70  70 71  71 72  72 73  73 74  74 75  75 76  76 77  77 78  78 79  79 80  80 81  81 82  82 83  83 84  84 85  85 86  86 87  87 88  88 89  89 90  90 91  91 92  92 93  93 94  94 95  95 96  96 97  97 98  98 99  99 100  </DataArray>
<DataArray  type="UInt32"  Name="offsets"  format="ascii">2 4 6 8 10 12 14 16 18 20 22 24 26 28 30 32 34 36 38 40 42 44 46 48 50 52 54 56 58 60 62 64 66 68 70 72 74 76 78 80 82 84 86 88 90 92 94 96 98 100 102 104 106 108 110 112 114 116 118 120 122 124 126 128 130 132 134 136 138 140 142 144 146 148 150 152 154 156 158 160 162 164 166 168 170 172 174 176 178 180 182 184 186 188 190 192 194 196 198 200 </DataArray>
<DataArray  type="UInt8"  Name="types"  format="ascii">3 3 3 3 3 3 3 3 3 3 3 3 3 3 3 3 3 3 3 3 3 3 3 3 3 3 3 3 3 3 3 3 3 3 3 3 3 3 3 3 3 3 3 3 3 3 3 3 3 3 3 3 3 3 3 3 3 3 3 3 3 3 3 3 3 3 3 3 3 3 3 3 3 3 3 3 3 3 3 3 3 3 3 3 3 3 3 3 3 3 3 3 3 3 3 3 3 3 3 3 </DataArray>
</Cells>
<PointData  Scalars="f_4102"> 
<DataArray  type="Float64"  Name="f_4102"  format="ascii">-2.5849394142282100e-19  1.8175778972136165e-03  1.7475611506792587e-03  1.9062363075203488e-03  1.9625876732135479e-03  2.0109458567567043e-03  2.0395179815874340e-03  2.0589425827444493e-03  2.0714178259996136e-03  2.0796164029824146e-03  2.0849545970145081e-03  2.0884437158097094e-03  2.0907207406894940e-03  2.0922077010017293e-03  2.0931784755270351e-03  2.0938123208228986e-03  2.0942261563704702e-03  2.0944963520424576e-03  2.0946727622967076e-03  2.0947879400372731e-03  2.0948631388054517e-03  2.0949122353762862e-03  2.0949442899220803e-03  2.0949652178561410e-03  2.0949788813387064e-03  2.0949878019559122e-03  2.0949936260307436e-03  2.0949974284293414e-03  2.0949999109169215e-03  2.0950015316644499e-03  2.0950025898030977e-03  2.0950032806292792e-03  2.0950037316474750e-03  2.0950040261021475e-03  2.0950042183413434e-03  2.0950043438473349e-03  2.0950044257854019e-03  2.0950044792793819e-03  2.0950045142030791e-03  2.0950045370026725e-03  2.0950045518865132e-03  2.0950045616018806e-03  2.0950045679420546e-03  2.0950045720773262e-03  2.0950045747709961e-03  2.0950045765202770e-03  2.0950045776480567e-03  2.0950045783625117e-03  2.0950045787955147e-03  2.0950045790269966e-03  2.0950045790996859e-03  2.0950045790269962e-03  2.0950045787955156e-03  2.0950045783625104e-03  2.0950045776480584e-03  2.0950045765202770e-03  2.0950045747709957e-03  2.0950045720773262e-03  2.0950045679420555e-03  2.0950045616018802e-03  2.0950045518865128e-03  2.0950045370026708e-03  2.0950045142030783e-03  2.0950044792793811e-03  2.0950044257854014e-03  2.0950043438473349e-03  2.0950042183413434e-03  2.0950040261021453e-03  2.0950037316474746e-03  2.0950032806292792e-03  2.0950025898030982e-03  2.0950015316644512e-03  2.0949999109169206e-03  2.0949974284293414e-03  2.0949936260307440e-03  2.0949878019559122e-03  2.0949788813387064e-03  2.0949652178561410e-03  2.0949442899220808e-03  2.0949122353762866e-03  2.0948631388054508e-03  2.0947879400372740e-03  2.0946727622967076e-03  2.0944963520424581e-03  2.0942261563704715e-03  2.0938123208228986e-03  2.0931784755270355e-03  2.0922077010017306e-03  2.0907207406894940e-03  2.0884437158097090e-03  2.0849545970145090e-03  2.0796164029824159e-03  2.0714178259996136e-03  2.0589425827444502e-03  2.0395179815874331e-03  2.0109458567567043e-03  1.9625876732135474e-03  1.9062363075203488e-03  1.7475611506792598e-03  1.8175778972136195e-03  5.1698788284563835e-19  </DataArray> 
</PointData> 
</Piece>
</UnstructuredGrid>
</VTKFile>