<?xml version="1.0"?>
<VTKFile type="UnstructuredGrid"  version="0.1"  >
<UnstructuredGrid>
<Piece  NumberOfPoints="101" NumberOfCells="100">
<Points>
<DataArray  type="Float64"  NumberOfComponents="3"  format="ascii">0 0 0  1e-07 0 0  2e-07 0 0  3e-07 0 0  4e-07 0 0  5e-07 0 0  6.000000000000001e-07 0 0  7.000000000000001e-07 0 0  8.000000000000001e-07 0 0  9.000000000000001e-07 0 0  1e-06 0 0  1.1e-06 0 0  1.2e-06 0 0  1.3e-06 0 0  1.4e-06 0 0  1.5e-06 0 0  1.6e-06 0 0  1.7e-06 0 0  1.8e-06 0 0  1.9e-06 0 0  2e-06 0 0  2.1e-06 0 0  2.2e-06 0 0  2.3e-06 0 0  2.4e-06 0 0  2.5e-06 0 0  2.600000000000001e-06 0 0  2.7e-06 0 0  2.8e-06 0 0  2.9e-06 0 0  3e-06 0 0  3.1e-06 0 0  3.2e-06 0 0  3.300000000000001e-06 0 0  3.4e-06 0 0  3.5e-06 0 0  3.6e-06 0 0  3.700000000000001e-06 0 0  3.8e-06 0 0  3.900000000000001e-06 0 0  4e-06 0 0  4.100000000000001e-06 0 0  4.2e-06 0 0  4.3e-06 0 0  4.4e-06 0 0  4.5e-06 0 0  4.6e-06 0 0  4.700000000000001e-06 0 0  4.800000000000001e-06 0 0  4.900000000000001e-06 0 0  5e-06 0 0  5.1e-06 0 0  5.200000000000001e-06 0 0  5.300000000000001e-06 0 0  5.4e-06 0 0  5.500000000000001e-06 0 0  5.600000000000001e-06 0 0  5.7e-06 0 0  5.8e-06 0 0  5.9e-06 0 0  6e-06 0 0  6.100000000000001e-06 0 0  6.2e-06 0 0  6.300000000000001e-06 0 0  6.400000000000001e-06 0 0  6.5e-06 0 0  6.600000000000001e-06 0 0  6.7e-06 0 0  6.8e-06 0 0  6.900000000000001e-06 0 0  7.000000000000001e-06 0 0  7.1e-06 0 0  7.200000000000001e-06 0 0  7.3e-06 0 0  7.400000000000001e-06 0 0  7.5e-06 0 0  7.6e-06 0 0  7.700000000000001e-06 0 0  7.800000000000002e-06 0 0  7.900000000000001e-06 0 0  8e-06 0 0  8.1e-06 0 0  8.200000000000001e-06 0 0  8.300000000000002e-06 0 0  8.400000000000001e-06 0 0  8.5e-06 0 0  8.600000000000001e-06 0 0  8.700000000000001e-06 0 0  8.8e-06 0 0  8.900000000000001e-06 0 0  9e-06 0 0  9.100000000000001e-06 0 0  9.2e-06 0 0  9.300000000000001e-06 0 0  9.400000000000001e-06 0 0  9.500000000000001e-06 0 0  9.600000000000001e-06 0 0  9.7e-06 0 0  9.800000000000001e-06 0 0  9.9e-06 0 0  1e-05 0 0  </DataArray>
</Points>
<Cells>
<DataArray  type="UInt32"  Name="connectivity"  format="ascii">0 1  1 2  2 3  3 4  4 5  5 6  6 7  7 8  8 9  9 10  10 11  11 12  12 13  13 14  14 15  15 16  16 17  17 18  18 19  19 20  20 21  21 22  22 23  23 24  24 25  25 26  26 27  27 28  28 29  29 30  30 31  31 32  32 33  33 34  34 35  35 36  36 37  37 38  38 39  39 40  40 41  41 42  42 43  43 44  44 45  45 46  46 47  47 48  48 49  49 50  50 51  51 52  52 53  53 54  54 55  55 56  56 57  57 58  58 59  59 60  60 61  61 62  62 63  63 64  64 65  65 66  66 67  67 68  68 69  69 70  70 71  71 72  72 73  73 74  74 75  75 76  76 77  77 78  78 79  79 80  80 81  81 82  82 83  83 84  84 85  85 86  86 87  87 88  88 89  89 90  90 91  91 92  92 93  93 94  94 95  95 96  96 97  97 98  98 99  99 100  </DataArray>
<DataArray  type="UInt32"  Name="offsets"  format="ascii">2 4 6 8 10 12 14 16 18 20 22 24 26 28 30 32 34 36 38 40 42 44 46 48 50 52 54 56 58 60 62 64 66 68 70 72 74 76 78 80 82 84 86 88 90 92 94 96 98 100 102 104 106 108 110 112 114 116 118 120 122 124 126 128 130 132 134 136 138 140 142 144 146 148 150 152 154 156 158 160 162 164 166 168 170 172 174 176 178 180 182 184 186 188 190 192 194 196 198 200 </DataArray>
<DataArray  type="UInt8"  Name="types"  format="ascii">3 3 3 3 3 3 3 3 3 3 3 3 3 3 3 3 3 3 3 3 3 3 3 3 3 3 3 3 3 3 3 3 3 3 3 3 3 3 3 3 3 3 3 3 3 3 3 3 3 3 3 3 3 3 3 3 3 3 3 3 3 3 3 3 3 3 3 3 3 3 3 3 3 3 3 3 3 3 3 3 3 3 3 3 3 3 3 3 3 3 3 3 3 3 3 3 3 3 3 3 </DataArray>
</Cells>
<PointData  Scalars="f_87"> 
<DataArray  type="Float64"  Name="f_87"  format="ascii">-3.2311742677852625e-20  1.5417367756083631e-04  9.1262585277986308e-05  5.4022577675979703e-05  3.1978481541670977e-05  1.8929553636713735e-05  1.1205285042014486e-05  6.6329304579730743e-06  3.9263406772200584e-06  2.3241840407149092e-06  1.3757928562985803e-06  8.1439591283829060e-07  4.8207889713287820e-07  2.8536496733008347e-07  1.6892082408837283e-07  9.9992108623793478e-08  5.9189989398830554e-08  3.5037313376547963e-08  2.0740218761902340e-08  1.2277102118779722e-08  7.2673889395909425e-09  4.3019062225197243e-09  2.5464987908567420e-09  1.5073913182692836e-09  8.9229517585167893e-10  5.2819110153979769e-10  3.1266093025722959e-10  1.8507857672030655e-10  1.0955663546651956e-10  6.4851678608283691e-11  3.8388731092398214e-11  2.2724079106507856e-11  1.3451441517979231e-11  7.9625351620870108e-12  4.7133956701019037e-12  2.7900785730549072e-12  1.6515775438075683e-12  9.7764572279511790e-13  5.7871406818483288e-13  3.4256782892428556e-13  2.0278186390384895e-13  1.2003603624264210e-13  7.1054924338189095e-14  4.2060721352878362e-14  2.4897701281115254e-14  1.4738109788533776e-14  8.7241740788186248e-15  5.1642452424085591e-15  3.0569574475238965e-15  1.8095555879552684e-15  1.0711602899649262e-15  6.3406969890007460e-16  3.7533540668912779e-16  2.2217852037224508e-16  1.3151782122086242e-16  7.7851527995157667e-17  4.6083947824855151e-17  2.7279236539275973e-17  1.6147851503390785e-17  9.5586659032826635e-18  5.6582198462373023e-18  3.3493640380671447e-18  1.9826446770104982e-18  1.1736197888917631e-18  6.9472025161625070e-19  4.1123729556528255e-19  2.4343052166739373e-19  1.4409787127357660e-19  8.5298245936254839e-20  5.0492007241302881e-20  2.9888572353070666e-20  1.7692438984164064e-20  1.0472979221310420e-20  6.1994445123225166e-21  3.6697401426270891e-21  2.1722902249737619e-21  1.2858798274787500e-21  7.6117220051173039e-22  4.5057330119604321e-22  2.6671533667525428e-22  1.5788123842577862e-22  9.3457263216309116e-23  5.5321709606533998e-23  3.2747497894674059e-23  1.9384769607037504e-23  1.1474747492309714e-23  6.7924359850461556e-24  4.0207562972757774e-24  2.3800677497848851e-24  1.4088640800756426e-24  8.3395719500444501e-25  4.9363259475398056e-25  2.9216099875005308e-25  1.7287083247997350e-25  1.0220718457910107e-25  6.0293207557360205e-26  3.5338995944083431e-26  2.0325225472740896e-26  1.1028700274240750e-26  4.8344178820046016e-27  0.0000000000000000e+00  </DataArray> 
</PointData> 
</Piece>
</UnstructuredGrid>
</VTKFile>