<?xml version="1.0"?>
<VTKFile type="UnstructuredGrid"  version="0.1"  >
<UnstructuredGrid>
<Piece  NumberOfPoints="101" NumberOfCells="100">
<Points>
<DataArray  type="Float64"  NumberOfComponents="3"  format="ascii">0 0 0  1e-07 0 0  2e-07 0 0  3e-07 0 0  4e-07 0 0  5e-07 0 0  6.000000000000001e-07 0 0  7.000000000000001e-07 0 0  8.000000000000001e-07 0 0  9.000000000000001e-07 0 0  1e-06 0 0  1.1e-06 0 0  1.2e-06 0 0  1.3e-06 0 0  1.4e-06 0 0  1.5e-06 0 0  1.6e-06 0 0  1.7e-06 0 0  1.8e-06 0 0  1.9e-06 0 0  2e-06 0 0  2.1e-06 0 0  2.2e-06 0 0  2.3e-06 0 0  2.4e-06 0 0  2.5e-06 0 0  2.600000000000001e-06 0 0  2.7e-06 0 0  2.8e-06 0 0  2.9e-06 0 0  3e-06 0 0  3.1e-06 0 0  3.2e-06 0 0  3.300000000000001e-06 0 0  3.4e-06 0 0  3.5e-06 0 0  3.6e-06 0 0  3.700000000000001e-06 0 0  3.8e-06 0 0  3.900000000000001e-06 0 0  4e-06 0 0  4.100000000000001e-06 0 0  4.2e-06 0 0  4.3e-06 0 0  4.4e-06 0 0  4.5e-06 0 0  4.6e-06 0 0  4.700000000000001e-06 0 0  4.800000000000001e-06 0 0  4.900000000000001e-06 0 0  5e-06 0 0  5.1e-06 0 0  5.200000000000001e-06 0 0  5.300000000000001e-06 0 0  5.4e-06 0 0  5.500000000000001e-06 0 0  5.600000000000001e-06 0 0  5.7e-06 0 0  5.8e-06 0 0  5.9e-06 0 0  6e-06 0 0  6.100000000000001e-06 0 0  6.2e-06 0 0  6.300000000000001e-06 0 0  6.400000000000001e-06 0 0  6.5e-06 0 0  6.600000000000001e-06 0 0  6.7e-06 0 0  6.8e-06 0 0  6.900000000000001e-06 0 0  7.000000000000001e-06 0 0  7.1e-06 0 0  7.200000000000001e-06 0 0  7.3e-06 0 0  7.400000000000001e-06 0 0  7.5e-06 0 0  7.6e-06 0 0  7.700000000000001e-06 0 0  7.800000000000002e-06 0 0  7.900000000000001e-06 0 0  8e-06 0 0  8.1e-06 0 0  8.200000000000001e-06 0 0  8.300000000000002e-06 0 0  8.400000000000001e-06 0 0  8.5e-06 0 0  8.600000000000001e-06 0 0  8.700000000000001e-06 0 0  8.8e-06 0 0  8.900000000000001e-06 0 0  9e-06 0 0  9.100000000000001e-06 0 0  9.2e-06 0 0  9.300000000000001e-06 0 0  9.400000000000001e-06 0 0  9.500000000000001e-06 0 0  9.600000000000001e-06 0 0  9.7e-06 0 0  9.800000000000001e-06 0 0  9.9e-06 0 0  1e-05 0 0  </DataArray>
</Points>
<Cells>
<DataArray  type="UInt32"  Name="connectivity"  format="ascii">0 1  1 2  2 3  3 4  4 5  5 6  6 7  7 8  8 9  9 10  10 11  11 12  12 13  13 14  14 15  15 16  16 17  17 18  18 19  19 20  20 21  21 22  22 23  23 24  24 25  25 26  26 27  27 28  28 29  29 30  30 31  31 32  32 33  33 34  34 35  35 36  36 37  37 38  38 39  39 40  40 41  41 42  42 43  43 44  44 45  45 46  46 47  47 48  48 49  49 50  50 51  51 52  52 53  53 54  54 55  55 56  56 57  57 58  58 59  59 60  60 61  61 62  62 63  63 64  64 65  65 66  66 67  67 68  68 69  69 70  70 71  71 72  72 73  73 74  74 75  75 76  76 77  77 78  78 79  79 80  80 81  81 82  82 83  83 84  84 85  85 86  86 87  87 88  88 89  89 90  90 91  91 92  92 93  93 94  94 95  95 96  96 97  97 98  98 99  99 100  </DataArray>
<DataArray  type="UInt32"  Name="offsets"  format="ascii">2 4 6 8 10 12 14 16 18 20 22 24 26 28 30 32 34 36 38 40 42 44 46 48 50 52 54 56 58 60 62 64 66 68 70 72 74 76 78 80 82 84 86 88 90 92 94 96 98 100 102 104 106 108 110 112 114 116 118 120 122 124 126 128 130 132 134 136 138 140 142 144 146 148 150 152 154 156 158 160 162 164 166 168 170 172 174 176 178 180 182 184 186 188 190 192 194 196 198 200 </DataArray>
<DataArray  type="UInt8"  Name="types"  format="ascii">3 3 3 3 3 3 3 3 3 3 3 3 3 3 3 3 3 3 3 3 3 3 3 3 3 3 3 3 3 3 3 3 3 3 3 3 3 3 3 3 3 3 3 3 3 3 3 3 3 3 3 3 3 3 3 3 3 3 3 3 3 3 3 3 3 3 3 3 3 3 3 3 3 3 3 3 3 3 3 3 3 3 3 3 3 3 3 3 3 3 3 3 3 3 3 3 3 3 3 3 </DataArray>
</Cells>
<PointData  Scalars="f_2122"> 
<DataArray  type="Float64"  Name="f_2122"  format="ascii">-1.2924697071141050e-19  1.8325544701520546e-03  1.7541278171140152e-03  1.9124864364326590e-03  1.9679680918135785e-03  2.0160322527268703e-03  2.0443749434060762e-03  2.0636689578628405e-03  2.0760564201659695e-03  2.0841987388963653e-03  2.0894997233417501e-03  2.0929643853636777e-03  2.0952252415712925e-03  2.0967015231397319e-03  2.0976652401866278e-03  2.0982944243073389e-03  2.0987051828062404e-03  2.0989733486559553e-03  2.0991484208407723e-03  2.0992627171535997e-03  2.0993373356957457e-03  2.0993860505651310e-03  2.0994178541621591e-03  2.0994386172043414e-03  2.0994521723977492e-03  2.0994610219329125e-03  2.0994667993696394e-03  2.0994705711807594e-03  2.0994730336151776e-03  2.0994746412203867e-03  2.0994756907486288e-03  2.0994763759351921e-03  2.0994768232605516e-03  2.0994771152977282e-03  2.0994773059546733e-03  2.0994774304252855e-03  2.0994775116859503e-03  2.0994775647368087e-03  2.0994775993706722e-03  2.0994776219807150e-03  2.0994776367405988e-03  2.0994776463749039e-03  2.0994776526620687e-03  2.0994776567626740e-03  2.0994776594336836e-03  2.0994776611681656e-03  2.0994776622863154e-03  2.0994776629945692e-03  2.0994776634236973e-03  2.0994776636529522e-03  2.0994776637247034e-03  2.0994776636522449e-03  2.0994776634222687e-03  2.0994776629923943e-03  2.0994776622833581e-03  2.0994776611643739e-03  2.0994776594289977e-03  2.0994776567570218e-03  2.0994776526553648e-03  2.0994776463670586e-03  2.0994776367315071e-03  2.0994776219702724e-03  2.0994775993587642e-03  2.0994775647233165e-03  2.0994775116707563e-03  2.0994774304082709e-03  2.0994773059357210e-03  2.0994771152767332e-03  2.0994768232374152e-03  2.0994763759098313e-03  2.0994756907209721e-03  2.0994746411903882e-03  2.0994730335828111e-03  2.0994705711460246e-03  2.0994667993325679e-03  2.0994610218935672e-03  2.0994521723562264e-03  2.0994386171607721e-03  2.0994178541167145e-03  2.0993860505180164e-03  2.0993373356472007e-03  2.0992627171039059e-03  2.0991484207902420e-03  2.0989733486049310e-03  2.0987051827550942e-03  2.0982944242564708e-03  2.0976652401364492e-03  2.0967015230906752e-03  2.0952252415237967e-03  2.0929643853181855e-03  2.0894997232987012e-03  2.0841987388561843e-03  2.0760564201290693e-03  2.0636689578296076e-03  2.0443749433768552e-03  2.0160322527020174e-03  1.9679680917932614e-03  1.9124864364174108e-03  1.7541278171032423e-03  1.8325544701473500e-03  1.2924697071140959e-19  </DataArray> 
</PointData> 
</Piece>
</UnstructuredGrid>
</VTKFile>