<?xml version="1.0"?>
<VTKFile type="UnstructuredGrid"  version="0.1"  >
<UnstructuredGrid>
<Piece  NumberOfPoints="101" NumberOfCells="100">
<Points>
<DataArray  type="Float64"  NumberOfComponents="3"  format="ascii">0 0 0  1e-07 0 0  2e-07 0 0  3e-07 0 0  4e-07 0 0  5e-07 0 0  6.000000000000001e-07 0 0  7.000000000000001e-07 0 0  8.000000000000001e-07 0 0  9.000000000000001e-07 0 0  1e-06 0 0  1.1e-06 0 0  1.2e-06 0 0  1.3e-06 0 0  1.4e-06 0 0  1.5e-06 0 0  1.6e-06 0 0  1.7e-06 0 0  1.8e-06 0 0  1.9e-06 0 0  2e-06 0 0  2.1e-06 0 0  2.2e-06 0 0  2.3e-06 0 0  2.4e-06 0 0  2.5e-06 0 0  2.600000000000001e-06 0 0  2.7e-06 0 0  2.8e-06 0 0  2.9e-06 0 0  3e-06 0 0  3.1e-06 0 0  3.2e-06 0 0  3.300000000000001e-06 0 0  3.4e-06 0 0  3.5e-06 0 0  3.6e-06 0 0  3.700000000000001e-06 0 0  3.8e-06 0 0  3.900000000000001e-06 0 0  4e-06 0 0  4.100000000000001e-06 0 0  4.2e-06 0 0  4.3e-06 0 0  4.4e-06 0 0  4.5e-06 0 0  4.6e-06 0 0  4.700000000000001e-06 0 0  4.800000000000001e-06 0 0  4.900000000000001e-06 0 0  5e-06 0 0  5.1e-06 0 0  5.200000000000001e-06 0 0  5.300000000000001e-06 0 0  5.4e-06 0 0  5.500000000000001e-06 0 0  5.600000000000001e-06 0 0  5.7e-06 0 0  5.8e-06 0 0  5.9e-06 0 0  6e-06 0 0  6.100000000000001e-06 0 0  6.2e-06 0 0  6.300000000000001e-06 0 0  6.400000000000001e-06 0 0  6.5e-06 0 0  6.600000000000001e-06 0 0  6.7e-06 0 0  6.8e-06 0 0  6.900000000000001e-06 0 0  7.000000000000001e-06 0 0  7.1e-06 0 0  7.200000000000001e-06 0 0  7.3e-06 0 0  7.400000000000001e-06 0 0  7.5e-06 0 0  7.6e-06 0 0  7.700000000000001e-06 0 0  7.800000000000002e-06 0 0  7.900000000000001e-06 0 0  8e-06 0 0  8.1e-06 0 0  8.200000000000001e-06 0 0  8.300000000000002e-06 0 0  8.400000000000001e-06 0 0  8.5e-06 0 0  8.600000000000001e-06 0 0  8.700000000000001e-06 0 0  8.8e-06 0 0  8.900000000000001e-06 0 0  9e-06 0 0  9.100000000000001e-06 0 0  9.2e-06 0 0  9.300000000000001e-06 0 0  9.400000000000001e-06 0 0  9.500000000000001e-06 0 0  9.600000000000001e-06 0 0  9.7e-06 0 0  9.800000000000001e-06 0 0  9.9e-06 0 0  1e-05 0 0  </DataArray>
</Points>
<Cells>
<DataArray  type="UInt32"  Name="connectivity"  format="ascii">0 1  1 2  2 3  3 4  4 5  5 6  6 7  7 8  8 9  9 10  10 11  11 12  12 13  13 14  14 15  15 16  16 17  17 18  18 19  19 20  20 21  21 22  22 23  23 24  24 25  25 26  26 27  27 28  28 29  29 30  30 31  31 32  32 33  33 34  34 35  35 36  36 37  37 38  38 39  39 40  40 41  41 42  42 43  43 44  44 45  45 46  46 47  47 48  48 49  49 50  50 51  51 52  52 53  53 54  54 55  55 56  56 57  57 58  58 59  59 60  60 61  61 62  62 63  63 64  64 65  65 66  66 67  67 68  68 69  69 70  70 71  71 72  72 73  73 74  74 75  75 76  76 77  77 78  78 79  79 80  80 81  81 82  82 83  83 84  84 85  85 86  86 87  87 88  88 89  89 90  90 91  91 92  92 93  93 94  94 95  95 96  96 97  97 98  98 99  99 100  </DataArray>
<DataArray  type="UInt32"  Name="offsets"  format="ascii">2 4 6 8 10 12 14 16 18 20 22 24 26 28 30 32 34 36 38 40 42 44 46 48 50 52 54 56 58 60 62 64 66 68 70 72 74 76 78 80 82 84 86 88 90 92 94 96 98 100 102 104 106 108 110 112 114 116 118 120 122 124 126 128 130 132 134 136 138 140 142 144 146 148 150 152 154 156 158 160 162 164 166 168 170 172 174 176 178 180 182 184 186 188 190 192 194 196 198 200 </DataArray>
<DataArray  type="UInt8"  Name="types"  format="ascii">3 3 3 3 3 3 3 3 3 3 3 3 3 3 3 3 3 3 3 3 3 3 3 3 3 3 3 3 3 3 3 3 3 3 3 3 3 3 3 3 3 3 3 3 3 3 3 3 3 3 3 3 3 3 3 3 3 3 3 3 3 3 3 3 3 3 3 3 3 3 3 3 3 3 3 3 3 3 3 3 3 3 3 3 3 3 3 3 3 3 3 3 3 3 3 3 3 3 3 3 </DataArray>
</Cells>
<PointData  Scalars="f_5312"> 
<DataArray  type="Float64"  Name="f_5312"  format="ascii">7.8886090522101136e-24  1.1571351954493883e-07  2.2896060110873263e-07  3.3747716740743452e-07  4.3936303879570994e-07  5.3318541541396921e-07  6.1801742995715016e-07  6.9342022436419112e-07  7.5938389656214359e-07  8.1624464053699078e-07  8.6459348038888237e-07  9.0518825801378949e-07  9.3887636675654500e-07  9.6653202367714121e-07  9.8900903598021896e-07  1.0071081143275852e-06  1.0215567035195233e-06  1.0329988495284995e-06  1.0419926022790804e-06  1.0490126937564847e-06  1.0544565990233191e-06  1.0586524921961707e-06  1.0618679936861011e-06  1.0643189387697609e-06  1.0661776689445285e-06  1.0675805562797152e-06  1.0686346233726178e-06  1.0694232267697980e-06  1.0700108397025814e-06  1.0704470099375658e-06  1.0707695883804167e-06  1.0710073301989917e-06  1.0711819675799570e-06  1.0713098454321478e-06  1.0714032009589840e-06  1.0714711567593348e-06  1.0715204860682027e-06  1.0715561985463981e-06  1.0715819859876174e-06  1.0716005595389049e-06  1.0716139035035509e-06  1.0716234654167954e-06  1.0716302977205431e-06  1.0716351628680647e-06  1.0716386109208272e-06  1.0716410365260306e-06  1.0716427204694824e-06  1.0716438596847933e-06  1.0716445885830043e-06  1.0716449937773294e-06  1.0716451236582616e-06  1.0716449937773296e-06  1.0716445885830049e-06  1.0716438596847933e-06  1.0716427204694822e-06  1.0716410365260295e-06  1.0716386109208264e-06  1.0716351628680628e-06  1.0716302977205412e-06  1.0716234654167924e-06  1.0716139035035467e-06  1.0716005595389006e-06  1.0715819859876135e-06  1.0715561985463938e-06  1.0715204860681995e-06  1.0714711567593324e-06  1.0714032009589810e-06  1.0713098454321450e-06  1.0711819675799549e-06  1.0710073301989906e-06  1.0707695883804154e-06  1.0704470099375663e-06  1.0700108397025814e-06  1.0694232267697982e-06  1.0686346233726174e-06  1.0675805562797154e-06  1.0661776689445287e-06  1.0643189387697617e-06  1.0618679936861022e-06  1.0586524921961726e-06  1.0544565990233208e-06  1.0490126937564864e-06  1.0419926022790823e-06  1.0329988495285014e-06  1.0215567035195252e-06  1.0071081143275875e-06  9.8900903598022044e-07  9.6653202367714269e-07  9.3887636675654722e-07  9.0518825801379044e-07  8.6459348038888406e-07  8.1624464053699205e-07  7.5938389656214518e-07  6.9342022436419186e-07  6.1801742995714963e-07  5.3318541541397016e-07  4.3936303879570984e-07  3.3747716740743520e-07  2.2896060110873255e-07  1.1571351954493977e-07  7.8886090522100578e-24  </DataArray> 
</PointData> 
</Piece>
</UnstructuredGrid>
</VTKFile>