<?xml version="1.0"?>
<VTKFile type="UnstructuredGrid"  version="0.1"  >
<UnstructuredGrid>
<Piece  NumberOfPoints="101" NumberOfCells="100">
<Points>
<DataArray  type="Float64"  NumberOfComponents="3"  format="ascii">0 0 0  1e-07 0 0  2e-07 0 0  3e-07 0 0  4e-07 0 0  5e-07 0 0  6.000000000000001e-07 0 0  7.000000000000001e-07 0 0  8.000000000000001e-07 0 0  9.000000000000001e-07 0 0  1e-06 0 0  1.1e-06 0 0  1.2e-06 0 0  1.3e-06 0 0  1.4e-06 0 0  1.5e-06 0 0  1.6e-06 0 0  1.7e-06 0 0  1.8e-06 0 0  1.9e-06 0 0  2e-06 0 0  2.1e-06 0 0  2.2e-06 0 0  2.3e-06 0 0  2.4e-06 0 0  2.5e-06 0 0  2.600000000000001e-06 0 0  2.7e-06 0 0  2.8e-06 0 0  2.9e-06 0 0  3e-06 0 0  3.1e-06 0 0  3.2e-06 0 0  3.300000000000001e-06 0 0  3.4e-06 0 0  3.5e-06 0 0  3.6e-06 0 0  3.700000000000001e-06 0 0  3.8e-06 0 0  3.900000000000001e-06 0 0  4e-06 0 0  4.100000000000001e-06 0 0  4.2e-06 0 0  4.3e-06 0 0  4.4e-06 0 0  4.5e-06 0 0  4.6e-06 0 0  4.700000000000001e-06 0 0  4.800000000000001e-06 0 0  4.900000000000001e-06 0 0  5e-06 0 0  5.1e-06 0 0  5.200000000000001e-06 0 0  5.300000000000001e-06 0 0  5.4e-06 0 0  5.500000000000001e-06 0 0  5.600000000000001e-06 0 0  5.7e-06 0 0  5.8e-06 0 0  5.9e-06 0 0  6e-06 0 0  6.100000000000001e-06 0 0  6.2e-06 0 0  6.300000000000001e-06 0 0  6.400000000000001e-06 0 0  6.5e-06 0 0  6.600000000000001e-06 0 0  6.7e-06 0 0  6.8e-06 0 0  6.900000000000001e-06 0 0  7.000000000000001e-06 0 0  7.1e-06 0 0  7.200000000000001e-06 0 0  7.3e-06 0 0  7.400000000000001e-06 0 0  7.5e-06 0 0  7.6e-06 0 0  7.700000000000001e-06 0 0  7.800000000000002e-06 0 0  7.900000000000001e-06 0 0  8e-06 0 0  8.1e-06 0 0  8.200000000000001e-06 0 0  8.300000000000002e-06 0 0  8.400000000000001e-06 0 0  8.5e-06 0 0  8.600000000000001e-06 0 0  8.700000000000001e-06 0 0  8.8e-06 0 0  8.900000000000001e-06 0 0  9e-06 0 0  9.100000000000001e-06 0 0  9.2e-06 0 0  9.300000000000001e-06 0 0  9.400000000000001e-06 0 0  9.500000000000001e-06 0 0  9.600000000000001e-06 0 0  9.7e-06 0 0  9.800000000000001e-06 0 0  9.9e-06 0 0  1e-05 0 0  </DataArray>
</Points>
<Cells>
<DataArray  type="UInt32"  Name="connectivity"  format="ascii">0 1  1 2  2 3  3 4  4 5  5 6  6 7  7 8  8 9  9 10  10 11  11 12  12 13  13 14  14 15  15 16  16 17  17 18  18 19  19 20  20 21  21 22  22 23  23 24  24 25  25 26  26 27  27 28  28 29  29 30  30 31  31 32  32 33  33 34  34 35  35 36  36 37  37 38  38 39  39 40  40 41  41 42  42 43  43 44  44 45  45 46  46 47  47 48  48 49  49 50  50 51  51 52  52 53  53 54  54 55  55 56  56 57  57 58  58 59  59 60  60 61  61 62  62 63  63 64  64 65  65 66  66 67  67 68  68 69  69 70  70 71  71 72  72 73  73 74  74 75  75 76  76 77  77 78  78 79  79 80  80 81  81 82  82 83  83 84  84 85  85 86  86 87  87 88  88 89  89 90  90 91  91 92  92 93  93 94  94 95  95 96  96 97  97 98  98 99  99 100  </DataArray>
<DataArray  type="UInt32"  Name="offsets"  format="ascii">2 4 6 8 10 12 14 16 18 20 22 24 26 28 30 32 34 36 38 40 42 44 46 48 50 52 54 56 58 60 62 64 66 68 70 72 74 76 78 80 82 84 86 88 90 92 94 96 98 100 102 104 106 108 110 112 114 116 118 120 122 124 126 128 130 132 134 136 138 140 142 144 146 148 150 152 154 156 158 160 162 164 166 168 170 172 174 176 178 180 182 184 186 188 190 192 194 196 198 200 </DataArray>
<DataArray  type="UInt8"  Name="types"  format="ascii">3 3 3 3 3 3 3 3 3 3 3 3 3 3 3 3 3 3 3 3 3 3 3 3 3 3 3 3 3 3 3 3 3 3 3 3 3 3 3 3 3 3 3 3 3 3 3 3 3 3 3 3 3 3 3 3 3 3 3 3 3 3 3 3 3 3 3 3 3 3 3 3 3 3 3 3 3 3 3 3 3 3 3 3 3 3 3 3 3 3 3 3 3 3 3 3 3 3 3 3 </DataArray>
</Cells>
<PointData  Scalars="f_6412"> 
<DataArray  type="Float64"  Name="f_6412"  format="ascii">-1.8367099231598232e-33  2.4685749417527474e-17  4.9246100581109664e-17  7.3557644952927929e-17  9.7500898560856317e-17  1.2096212932690873e-16  1.4383502852406804e-16  1.6602218417555640e-16  1.8743632190843026e-16  2.0800128760376360e-16  2.2765275570101874e-16  2.4633865674878163e-16  2.6401932729279575e-16  2.8066739403726410e-16  2.9626741204837556e-16  3.1081528330829085e-16  3.2431748697896854e-16  3.3679015619528487e-16  3.4825803806219989e-16  3.5875337384920182e-16  3.6831473529437168e-16  3.7698585064202682e-16  3.8481445077149070e-16  3.9185116178000930e-16  3.9814846591449149e-16  4.0375974804880508e-16  4.0873844019835927e-16  4.1313727204372063e-16  4.1700763125595050e-16  4.2039903369537786e-16  4.2335870037094180e-16  4.2593123544079780e-16  4.2815839751560207e-16  4.3007895507519252e-16  4.3172861588676773e-16  4.3314001986154108e-16  4.3434278474028349e-16  4.3536359428391884e-16  4.3622631919044492e-16  4.3695216169367567e-16  4.3755981565810710e-16  4.3806563491048103e-16  4.3848380349405204e-16  4.3882650245700014e-16  4.3910406866200181e-16  4.3932514190857315e-16  4.3949679738045343e-16  4.3962466106119327e-16  4.3971300630269872e-16  4.3976483018936856e-16  4.3978190872453899e-16  4.3976483018936832e-16  4.3971300630269852e-16  4.3962466106119273e-16  4.3949679738045254e-16  4.3932514190857202e-16  4.3910406866200048e-16  4.3882650245699842e-16  4.3848380349404997e-16  4.3806563491047862e-16  4.3755981565810429e-16  4.3695216169367242e-16  4.3622631919044162e-16  4.3536359428391578e-16  4.3434278474028043e-16  4.3314001986153827e-16  4.3172861588676497e-16  4.3007895507519000e-16  4.2815839751559976e-16  4.2593123544079617e-16  4.2335870037094032e-16  4.2039903369537692e-16  4.1700763125594957e-16  4.1313727204371989e-16  4.0873844019835873e-16  4.0375974804880479e-16  3.9814846591449174e-16  3.9185116178000935e-16  3.8481445077149125e-16  3.7698585064202756e-16  3.6831473529437267e-16  3.5875337384920305e-16  3.4825803806220112e-16  3.3679015619528615e-16  3.2431748697896997e-16  3.1081528330829252e-16  2.9626741204837699e-16  2.8066739403726543e-16  2.6401932729279703e-16  2.4633865674878272e-16  2.2765275570102002e-16  2.0800128760376451e-16  1.8743632190843135e-16  1.6602218417555711e-16  1.4383502852406841e-16  1.2096212932690925e-16  9.7500898560856613e-17  7.3557644952928323e-17  4.9246100581109830e-17  2.4685749417527749e-17  3.6734198463196204e-33  </DataArray> 
</PointData> 
</Piece>
</UnstructuredGrid>
</VTKFile>