<?xml version="1.0"?>
<VTKFile type="UnstructuredGrid"  version="0.1"  >
<UnstructuredGrid>
<Piece  NumberOfPoints="101" NumberOfCells="100">
<Points>
<DataArray  type="Float64"  NumberOfComponents="3"  format="ascii">0 0 0  1e-07 0 0  2e-07 0 0  3e-07 0 0  4e-07 0 0  5e-07 0 0  6.000000000000001e-07 0 0  7.000000000000001e-07 0 0  8.000000000000001e-07 0 0  9.000000000000001e-07 0 0  1e-06 0 0  1.1e-06 0 0  1.2e-06 0 0  1.3e-06 0 0  1.4e-06 0 0  1.5e-06 0 0  1.6e-06 0 0  1.7e-06 0 0  1.8e-06 0 0  1.9e-06 0 0  2e-06 0 0  2.1e-06 0 0  2.2e-06 0 0  2.3e-06 0 0  2.4e-06 0 0  2.5e-06 0 0  2.600000000000001e-06 0 0  2.7e-06 0 0  2.8e-06 0 0  2.9e-06 0 0  3e-06 0 0  3.1e-06 0 0  3.2e-06 0 0  3.300000000000001e-06 0 0  3.4e-06 0 0  3.5e-06 0 0  3.6e-06 0 0  3.700000000000001e-06 0 0  3.8e-06 0 0  3.900000000000001e-06 0 0  4e-06 0 0  4.100000000000001e-06 0 0  4.2e-06 0 0  4.3e-06 0 0  4.4e-06 0 0  4.5e-06 0 0  4.6e-06 0 0  4.700000000000001e-06 0 0  4.800000000000001e-06 0 0  4.900000000000001e-06 0 0  5e-06 0 0  5.1e-06 0 0  5.200000000000001e-06 0 0  5.300000000000001e-06 0 0  5.4e-06 0 0  5.500000000000001e-06 0 0  5.600000000000001e-06 0 0  5.7e-06 0 0  5.8e-06 0 0  5.9e-06 0 0  6e-06 0 0  6.100000000000001e-06 0 0  6.2e-06 0 0  6.300000000000001e-06 0 0  6.400000000000001e-06 0 0  6.5e-06 0 0  6.600000000000001e-06 0 0  6.7e-06 0 0  6.8e-06 0 0  6.900000000000001e-06 0 0  7.000000000000001e-06 0 0  7.1e-06 0 0  7.200000000000001e-06 0 0  7.3e-06 0 0  7.400000000000001e-06 0 0  7.5e-06 0 0  7.6e-06 0 0  7.700000000000001e-06 0 0  7.800000000000002e-06 0 0  7.900000000000001e-06 0 0  8e-06 0 0  8.1e-06 0 0  8.200000000000001e-06 0 0  8.300000000000002e-06 0 0  8.400000000000001e-06 0 0  8.5e-06 0 0  8.600000000000001e-06 0 0  8.700000000000001e-06 0 0  8.8e-06 0 0  8.900000000000001e-06 0 0  9e-06 0 0  9.100000000000001e-06 0 0  9.2e-06 0 0  9.300000000000001e-06 0 0  9.400000000000001e-06 0 0  9.500000000000001e-06 0 0  9.600000000000001e-06 0 0  9.7e-06 0 0  9.800000000000001e-06 0 0  9.9e-06 0 0  1e-05 0 0  </DataArray>
</Points>
<Cells>
<DataArray  type="UInt32"  Name="connectivity"  format="ascii">0 1  1 2  2 3  3 4  4 5  5 6  6 7  7 8  8 9  9 10  10 11  11 12  12 13  13 14  14 15  15 16  16 17  17 18  18 19  19 20  20 21  21 22  22 23  23 24  24 25  25 26  26 27  27 28  28 29  29 30  30 31  31 32  32 33  33 34  34 35  35 36  36 37  37 38  38 39  39 40  40 41  41 42  42 43  43 44  44 45  45 46  46 47  47 48  48 49  49 50  50 51  51 52  52 53  53 54  54 55  55 56  56 57  57 58  58 59  59 60  60 61  61 62  62 63  63 64  64 65  65 66  66 67  67 68  68 69  69 70  70 71  71 72  72 73  73 74  74 75  75 76  76 77  77 78  78 79  79 80  80 81  81 82  82 83  83 84  84 85  85 86  86 87  87 88  88 89  89 90  90 91  91 92  92 93  93 94  94 95  95 96  96 97  97 98  98 99  99 100  </DataArray>
<DataArray  type="UInt32"  Name="offsets"  format="ascii">2 4 6 8 10 12 14 16 18 20 22 24 26 28 30 32 34 36 38 40 42 44 46 48 50 52 54 56 58 60 62 64 66 68 70 72 74 76 78 80 82 84 86 88 90 92 94 96 98 100 102 104 106 108 110 112 114 116 118 120 122 124 126 128 130 132 134 136 138 140 142 144 146 148 150 152 154 156 158 160 162 164 166 168 170 172 174 176 178 180 182 184 186 188 190 192 194 196 198 200 </DataArray>
<DataArray  type="UInt8"  Name="types"  format="ascii">3 3 3 3 3 3 3 3 3 3 3 3 3 3 3 3 3 3 3 3 3 3 3 3 3 3 3 3 3 3 3 3 3 3 3 3 3 3 3 3 3 3 3 3 3 3 3 3 3 3 3 3 3 3 3 3 3 3 3 3 3 3 3 3 3 3 3 3 3 3 3 3 3 3 3 3 3 3 3 3 3 3 3 3 3 3 3 3 3 3 3 3 3 3 3 3 3 3 3 3 </DataArray>
</Cells>
<PointData  Scalars="f_6192"> 
<DataArray  type="Float64"  Name="f_6192"  format="ascii">-2.3509887016445737e-31  2.1577817244869026e-15  4.3026308679374515e-15  6.4218590234214270e-15  8.5032580465839187e-15  1.0535320368227681e-14  1.2507436605245781e-14  1.4410064627418053e-14  1.6234865569604781e-14  1.7974803775695288e-14  1.9624209231269407e-14  2.1178802595247588e-14  2.2635684392410189e-14  2.3993291206415589e-14  2.5251322761195804e-14  2.6410644560747703e-14  2.7473171256540979e-14  2.8441736130132205e-14  2.9319952034873664e-14  3.0112068867021203e-14  3.0822832174817802e-14  3.1457346911514454e-14  3.2020949643673730e-14  3.2519091786607233e-14  3.2957235697022159e-14  3.3340764745003162e-14  3.3674907841771475e-14  3.3964678336554490e-14  3.4214826727771853e-14  3.4429806265757181e-14  3.4613750255377313e-14  3.4770459691215809e-14  3.4903399765866647e-14  3.5015703771387942e-14  3.5110182951946620e-14  3.5189340948775208e-14  3.5255391593947653e-14  3.5310278945484698e-14  3.5355698602741959e-14  3.5393119489439404e-14  3.5423805435340525e-14  3.5448836021461438e-14  3.5469126274313877e-14  3.5485444899958782e-14  3.5498430837615891e-14  3.5508607985201793e-14  3.5516398006144969e-14  3.5522131169353168e-14  3.5526055203861674e-14  3.5528342168277344e-14  3.5529093344591067e-14  3.5528342168277350e-14  3.5526055203861674e-14  3.5522131169353130e-14  3.5516398006144925e-14  3.5508607985201711e-14  3.5498430837615777e-14  3.5485444899958656e-14  3.5469126274313706e-14  3.5448836021461243e-14  3.5423805435340311e-14  3.5393119489439183e-14  3.5355698602741745e-14  3.5310278945484451e-14  3.5255391593947451e-14  3.5189340948775012e-14  3.5110182951946431e-14  3.5015703771387752e-14  3.4903399765866520e-14  3.4770459691215683e-14  3.4613750255377225e-14  3.4429806265757130e-14  3.4214826727771790e-14  3.3964678336554453e-14  3.3674907841771444e-14  3.3340764745003175e-14  3.2957235697022178e-14  3.2519091786607296e-14  3.2020949643673780e-14  3.1457346911514536e-14  3.0822832174817909e-14  3.0112068867021298e-14  2.9319952034873777e-14  2.8441736130132306e-14  2.7473171256541099e-14  2.6410644560747842e-14  2.5251322761195924e-14  2.3993291206415687e-14  2.2635684392410312e-14  2.1178802595247664e-14  1.9624209231269495e-14  1.7974803775695361e-14  1.6234865569604857e-14  1.4410064627418104e-14  1.2507436605245806e-14  1.0535320368227722e-14  8.5032580465839392e-15  6.4218590234214609e-15  4.3026308679374625e-15  2.1577817244869259e-15  4.7019774032891141e-31  </DataArray> 
</PointData> 
</Piece>
</UnstructuredGrid>
</VTKFile>