<?xml version="1.0"?>
<VTKFile type="UnstructuredGrid"  version="0.1"  >
<UnstructuredGrid>
<Piece  NumberOfPoints="101" NumberOfCells="100">
<Points>
<DataArray  type="Float64"  NumberOfComponents="3"  format="ascii">0 0 0  1e-07 0 0  2e-07 0 0  3e-07 0 0  4e-07 0 0  5e-07 0 0  6.000000000000001e-07 0 0  7.000000000000001e-07 0 0  8.000000000000001e-07 0 0  9.000000000000001e-07 0 0  1e-06 0 0  1.1e-06 0 0  1.2e-06 0 0  1.3e-06 0 0  1.4e-06 0 0  1.5e-06 0 0  1.6e-06 0 0  1.7e-06 0 0  1.8e-06 0 0  1.9e-06 0 0  2e-06 0 0  2.1e-06 0 0  2.2e-06 0 0  2.3e-06 0 0  2.4e-06 0 0  2.5e-06 0 0  2.600000000000001e-06 0 0  2.7e-06 0 0  2.8e-06 0 0  2.9e-06 0 0  3e-06 0 0  3.1e-06 0 0  3.2e-06 0 0  3.300000000000001e-06 0 0  3.4e-06 0 0  3.5e-06 0 0  3.6e-06 0 0  3.700000000000001e-06 0 0  3.8e-06 0 0  3.900000000000001e-06 0 0  4e-06 0 0  4.100000000000001e-06 0 0  4.2e-06 0 0  4.3e-06 0 0  4.4e-06 0 0  4.5e-06 0 0  4.6e-06 0 0  4.700000000000001e-06 0 0  4.800000000000001e-06 0 0  4.900000000000001e-06 0 0  5e-06 0 0  5.1e-06 0 0  5.200000000000001e-06 0 0  5.300000000000001e-06 0 0  5.4e-06 0 0  5.500000000000001e-06 0 0  5.600000000000001e-06 0 0  5.7e-06 0 0  5.8e-06 0 0  5.9e-06 0 0  6e-06 0 0  6.100000000000001e-06 0 0  6.2e-06 0 0  6.300000000000001e-06 0 0  6.400000000000001e-06 0 0  6.5e-06 0 0  6.600000000000001e-06 0 0  6.7e-06 0 0  6.8e-06 0 0  6.900000000000001e-06 0 0  7.000000000000001e-06 0 0  7.1e-06 0 0  7.200000000000001e-06 0 0  7.3e-06 0 0  7.400000000000001e-06 0 0  7.5e-06 0 0  7.6e-06 0 0  7.700000000000001e-06 0 0  7.800000000000002e-06 0 0  7.900000000000001e-06 0 0  8e-06 0 0  8.1e-06 0 0  8.200000000000001e-06 0 0  8.300000000000002e-06 0 0  8.400000000000001e-06 0 0  8.5e-06 0 0  8.600000000000001e-06 0 0  8.700000000000001e-06 0 0  8.8e-06 0 0  8.900000000000001e-06 0 0  9e-06 0 0  9.100000000000001e-06 0 0  9.2e-06 0 0  9.300000000000001e-06 0 0  9.400000000000001e-06 0 0  9.500000000000001e-06 0 0  9.600000000000001e-06 0 0  9.7e-06 0 0  9.800000000000001e-06 0 0  9.9e-06 0 0  1e-05 0 0  </DataArray>
</Points>
<Cells>
<DataArray  type="UInt32"  Name="connectivity"  format="ascii">0 1  1 2  2 3  3 4  4 5  5 6  6 7  7 8  8 9  9 10  10 11  11 12  12 13  13 14  14 15  15 16  16 17  17 18  18 19  19 20  20 21  21 22  22 23  23 24  24 25  25 26  26 27  27 28  28 29  29 30  30 31  31 32  32 33  33 34  34 35  35 36  36 37  37 38  38 39  39 40  40 41  41 42  42 43  43 44  44 45  45 46  46 47  47 48  48 49  49 50  50 51  51 52  52 53  53 54  54 55  55 56  56 57  57 58  58 59  59 60  60 61  61 62  62 63  63 64  64 65  65 66  66 67  67 68  68 69  69 70  70 71  71 72  72 73  73 74  74 75  75 76  76 77  77 78  78 79  79 80  80 81  81 82  82 83  83 84  84 85  85 86  86 87  87 88  88 89  89 90  90 91  91 92  92 93  93 94  94 95  95 96  96 97  97 98  98 99  99 100  </DataArray>
<DataArray  type="UInt32"  Name="offsets"  format="ascii">2 4 6 8 10 12 14 16 18 20 22 24 26 28 30 32 34 36 38 40 42 44 46 48 50 52 54 56 58 60 62 64 66 68 70 72 74 76 78 80 82 84 86 88 90 92 94 96 98 100 102 104 106 108 110 112 114 116 118 120 122 124 126 128 130 132 134 136 138 140 142 144 146 148 150 152 154 156 158 160 162 164 166 168 170 172 174 176 178 180 182 184 186 188 190 192 194 196 198 200 </DataArray>
<DataArray  type="UInt8"  Name="types"  format="ascii">3 3 3 3 3 3 3 3 3 3 3 3 3 3 3 3 3 3 3 3 3 3 3 3 3 3 3 3 3 3 3 3 3 3 3 3 3 3 3 3 3 3 3 3 3 3 3 3 3 3 3 3 3 3 3 3 3 3 3 3 3 3 3 3 3 3 3 3 3 3 3 3 3 3 3 3 3 3 3 3 3 3 3 3 3 3 3 3 3 3 3 3 3 3 3 3 3 3 3 3 </DataArray>
</Cells>
<PointData  Scalars="f_5642"> 
<DataArray  type="Float64"  Name="f_5642"  format="ascii">3.0814879110195756e-26  1.5915104577885154e-10  3.1656412361642339e-10  4.7056423339531678e-10  6.1959806279343531e-10  7.6228466582115406e-10  8.9745514187676236e-10  1.0241794482807178e-09  1.1417796700175043e-09  1.2498302078354980e-09  1.3481463039630740e-09  1.4367630208401724e-09  1.5159071880310391e-09  1.5859649452647395e-09  1.6474473777989624e-09  1.7009564261591025e-09  1.7471528246382137e-09  1.7867273468779876e-09  1.8203761667205920e-09  1.8487807183058398e-09  1.8725920860770658e-09  1.8924196844053801e-09  1.9088237985330196e-09  1.9223114463263257e-09  1.9333349720732964e-09  1.9422927853103758e-09  1.9495316953475488e-09  1.9553503529385810e-09  1.9600033835833609e-09  1.9637058737514382e-09  1.9666379456992613e-09  1.9689492244284365e-09  1.9707630593567181e-09  1.9721804124693654e-09  1.9732833640994022e-09  1.9741382177260973e-09  1.9747982073475663e-09  1.9753058263223808e-09  1.9756948063637545e-09  1.9759917808148784e-09  1.9762176685115544e-09  1.9763888143655221e-09  1.9765179210288158e-09  1.9766148032174560e-09  1.9766869929295347e-09  1.9767402202131621e-09  1.9767787905467648e-09  1.9768058764291516e-09  1.9768237375176251e-09  1.9768338806292102e-09  1.9768371681278512e-09  1.9768338806292102e-09  1.9768237375176247e-09  1.9768058764291508e-09  1.9767787905467627e-09  1.9767402202131592e-09  1.9766869929295314e-09  1.9766148032174507e-09  1.9765179210288091e-09  1.9763888143655138e-09  1.9762176685115462e-09  1.9759917808148693e-09  1.9756948063637442e-09  1.9753058263223700e-09  1.9747982073475572e-09  1.9741382177260895e-09  1.9732833640993939e-09  1.9721804124693588e-09  1.9707630593567123e-09  1.9689492244284327e-09  1.9666379456992584e-09  1.9637058737514374e-09  1.9600033835833605e-09  1.9553503529385802e-09  1.9495316953475501e-09  1.9422927853103774e-09  1.9333349720732976e-09  1.9223114463263290e-09  1.9088237985330233e-09  1.8924196844053842e-09  1.8725920860770716e-09  1.8487807183058444e-09  1.8203761667205974e-09  1.7867273468779938e-09  1.7471528246382199e-09  1.7009564261591098e-09  1.6474473777989682e-09  1.5859649452647447e-09  1.5159071880310441e-09  1.4367630208401764e-09  1.3481463039630790e-09  1.2498302078355009e-09  1.1417796700175080e-09  1.0241794482807205e-09  8.9745514187676309e-10  7.6228466582115665e-10  6.1959806279343541e-10  4.7056423339531833e-10  3.1656412361642365e-10  1.5915104577885325e-10  -1.5407439555097769e-26  </DataArray> 
</PointData> 
</Piece>
</UnstructuredGrid>
</VTKFile>