<?xml version="1.0"?>
<VTKFile type="UnstructuredGrid"  version="0.1"  >
<UnstructuredGrid>
<Piece  NumberOfPoints="101" NumberOfCells="100">
<Points>
<DataArray  type="Float64"  NumberOfComponents="3"  format="ascii">0 0 0  1e-07 0 0  2e-07 0 0  3e-07 0 0  4e-07 0 0  5e-07 0 0  6.000000000000001e-07 0 0  7.000000000000001e-07 0 0  8.000000000000001e-07 0 0  9.000000000000001e-07 0 0  1e-06 0 0  1.1e-06 0 0  1.2e-06 0 0  1.3e-06 0 0  1.4e-06 0 0  1.5e-06 0 0  1.6e-06 0 0  1.7e-06 0 0  1.8e-06 0 0  1.9e-06 0 0  2e-06 0 0  2.1e-06 0 0  2.2e-06 0 0  2.3e-06 0 0  2.4e-06 0 0  2.5e-06 0 0  2.600000000000001e-06 0 0  2.7e-06 0 0  2.8e-06 0 0  2.9e-06 0 0  3e-06 0 0  3.1e-06 0 0  3.2e-06 0 0  3.300000000000001e-06 0 0  3.4e-06 0 0  3.5e-06 0 0  3.6e-06 0 0  3.700000000000001e-06 0 0  3.8e-06 0 0  3.900000000000001e-06 0 0  4e-06 0 0  4.100000000000001e-06 0 0  4.2e-06 0 0  4.3e-06 0 0  4.4e-06 0 0  4.5e-06 0 0  4.6e-06 0 0  4.700000000000001e-06 0 0  4.800000000000001e-06 0 0  4.900000000000001e-06 0 0  5e-06 0 0  5.1e-06 0 0  5.200000000000001e-06 0 0  5.300000000000001e-06 0 0  5.4e-06 0 0  5.500000000000001e-06 0 0  5.600000000000001e-06 0 0  5.7e-06 0 0  5.8e-06 0 0  5.9e-06 0 0  6e-06 0 0  6.100000000000001e-06 0 0  6.2e-06 0 0  6.300000000000001e-06 0 0  6.400000000000001e-06 0 0  6.5e-06 0 0  6.600000000000001e-06 0 0  6.7e-06 0 0  6.8e-06 0 0  6.900000000000001e-06 0 0  7.000000000000001e-06 0 0  7.1e-06 0 0  7.200000000000001e-06 0 0  7.3e-06 0 0  7.400000000000001e-06 0 0  7.5e-06 0 0  7.6e-06 0 0  7.700000000000001e-06 0 0  7.800000000000002e-06 0 0  7.900000000000001e-06 0 0  8e-06 0 0  8.1e-06 0 0  8.200000000000001e-06 0 0  8.300000000000002e-06 0 0  8.400000000000001e-06 0 0  8.5e-06 0 0  8.600000000000001e-06 0 0  8.700000000000001e-06 0 0  8.8e-06 0 0  8.900000000000001e-06 0 0  9e-06 0 0  9.100000000000001e-06 0 0  9.2e-06 0 0  9.300000000000001e-06 0 0  9.400000000000001e-06 0 0  9.500000000000001e-06 0 0  9.600000000000001e-06 0 0  9.7e-06 0 0  9.800000000000001e-06 0 0  9.9e-06 0 0  1e-05 0 0  </DataArray>
</Points>
<Cells>
<DataArray  type="UInt32"  Name="connectivity"  format="ascii">0 1  1 2  2 3  3 4  4 5  5 6  6 7  7 8  8 9  9 10  10 11  11 12  12 13  13 14  14 15  15 16  16 17  17 18  18 19  19 20  20 21  21 22  22 23  23 24  24 25  25 26  26 27  27 28  28 29  29 30  30 31  31 32  32 33  33 34  34 35  35 36  36 37  37 38  38 39  39 40  40 41  41 42  42 43  43 44  44 45  45 46  46 47  47 48  48 49  49 50  50 51  51 52  52 53  53 54  54 55  55 56  56 57  57 58  58 59  59 60  60 61  61 62  62 63  63 64  64 65  65 66  66 67  67 68  68 69  69 70  70 71  71 72  72 73  73 74  74 75  75 76  76 77  77 78  78 79  79 80  80 81  81 82  82 83  83 84  84 85  85 86  86 87  87 88  88 89  89 90  90 91  91 92  92 93  93 94  94 95  95 96  96 97  97 98  98 99  99 100  </DataArray>
<DataArray  type="UInt32"  Name="offsets"  format="ascii">2 4 6 8 10 12 14 16 18 20 22 24 26 28 30 32 34 36 38 40 42 44 46 48 50 52 54 56 58 60 62 64 66 68 70 72 74 76 78 80 82 84 86 88 90 92 94 96 98 100 102 104 106 108 110 112 114 116 118 120 122 124 126 128 130 132 134 136 138 140 142 144 146 148 150 152 154 156 158 160 162 164 166 168 170 172 174 176 178 180 182 184 186 188 190 192 194 196 198 200 </DataArray>
<DataArray  type="UInt8"  Name="types"  format="ascii">3 3 3 3 3 3 3 3 3 3 3 3 3 3 3 3 3 3 3 3 3 3 3 3 3 3 3 3 3 3 3 3 3 3 3 3 3 3 3 3 3 3 3 3 3 3 3 3 3 3 3 3 3 3 3 3 3 3 3 3 3 3 3 3 3 3 3 3 3 3 3 3 3 3 3 3 3 3 3 3 3 3 3 3 3 3 3 3 3 3 3 3 3 3 3 3 3 3 3 3 </DataArray>
</Cells>
<PointData  Scalars="f_6577"> 
<DataArray  type="Float64"  Name="f_6577"  format="ascii">5.7397185098744475e-35  8.6872163712685255e-19  1.7334825241304284e-18  2.5903780544750957e-18  3.4356145326054981e-18  4.2655612380040741e-18  5.0767985545449150e-18  5.8661610717279777e-18  6.6307747380534956e-18  7.3680873481964723e-18  8.0758918656969543e-18  8.7523423119658767e-18  9.3959621808688866e-18  1.0005645556820929e-17  1.0580651314969654e-17  1.1120590957741125e-17  1.1625410787423190e-17  1.2095369225973970e-17  1.2531010169061115e-17  1.2933133301401390e-17  1.3302762306306523e-17  1.3641111876845714e-17  1.3949554383190198e-17  1.4229586975272041e-17  1.4482799807090957e-17  1.4710845964215904e-17  1.4915413564507207e-17  1.5098200388724556e-17  1.5260891286836609e-17  1.5405138501179253e-17  1.5532544952040635e-17  1.5644650446910014e-17  1.5742920702882837e-17  1.5828739013215562e-17  1.5903400343790117e-17  1.5968107612767518e-17  1.6023969886045569e-17  1.6072002211043977e-17  1.6113126810375155e-17  1.6148175363574075e-17  1.6177892117695855e-17  1.6202937584744552e-17  1.6223892604186093e-17  1.6241262570994693e-17  1.6255481652745408e-17  1.6266916842352216e-17  1.6275871715523128e-17  1.6282589783419309e-17  1.6287257351106972e-17  1.6290005811088246e-17  1.6290913318543560e-17  1.6290005811088242e-17  1.6287257351106972e-17  1.6282589783419285e-17  1.6275871715523106e-17  1.6266916842352166e-17  1.6255481652745350e-17  1.6241262570994632e-17  1.6223892604186019e-17  1.6202937584744456e-17  1.6177892117695738e-17  1.6148175363573958e-17  1.6113126810375029e-17  1.6072002211043851e-17  1.6023969886045458e-17  1.5968107612767407e-17  1.5903400343790012e-17  1.5828739013215458e-17  1.5742920702882763e-17  1.5644650446909943e-17  1.5532544952040580e-17  1.5405138501179213e-17  1.5260891286836569e-17  1.5098200388724534e-17  1.4915413564507173e-17  1.4710845964215891e-17  1.4482799807090948e-17  1.4229586975272047e-17  1.3949554383190216e-17  1.3641111876845736e-17  1.3302762306306563e-17  1.2933133301401428e-17  1.2531010169061157e-17  1.2095369225974016e-17  1.1625410787423235e-17  1.1120590957741183e-17  1.0580651314969705e-17  1.0005645556820976e-17  9.3959621808689359e-18  8.7523423119659152e-18  8.0758918656969959e-18  7.3680873481965093e-18  6.6307747380535311e-18  5.8661610717280077e-18  5.0767985545449273e-18  4.2655612380040956e-18  3.4356145326055074e-18  2.5903780544751111e-18  1.7334825241304340e-18  8.6872163712686334e-19  0.0000000000000000e+00  </DataArray> 
</PointData> 
</Piece>
</UnstructuredGrid>
</VTKFile>