<?xml version="1.0"?>
<VTKFile type="UnstructuredGrid"  version="0.1"  >
<UnstructuredGrid>
<Piece  NumberOfPoints="101" NumberOfCells="100">
<Points>
<DataArray  type="Float64"  NumberOfComponents="3"  format="ascii">0 0 0  1e-07 0 0  2e-07 0 0  3e-07 0 0  4e-07 0 0  5e-07 0 0  6.000000000000001e-07 0 0  7.000000000000001e-07 0 0  8.000000000000001e-07 0 0  9.000000000000001e-07 0 0  1e-06 0 0  1.1e-06 0 0  1.2e-06 0 0  1.3e-06 0 0  1.4e-06 0 0  1.5e-06 0 0  1.6e-06 0 0  1.7e-06 0 0  1.8e-06 0 0  1.9e-06 0 0  2e-06 0 0  2.1e-06 0 0  2.2e-06 0 0  2.3e-06 0 0  2.4e-06 0 0  2.5e-06 0 0  2.600000000000001e-06 0 0  2.7e-06 0 0  2.8e-06 0 0  2.9e-06 0 0  3e-06 0 0  3.1e-06 0 0  3.2e-06 0 0  3.300000000000001e-06 0 0  3.4e-06 0 0  3.5e-06 0 0  3.6e-06 0 0  3.700000000000001e-06 0 0  3.8e-06 0 0  3.900000000000001e-06 0 0  4e-06 0 0  4.100000000000001e-06 0 0  4.2e-06 0 0  4.3e-06 0 0  4.4e-06 0 0  4.5e-06 0 0  4.6e-06 0 0  4.700000000000001e-06 0 0  4.800000000000001e-06 0 0  4.900000000000001e-06 0 0  5e-06 0 0  5.1e-06 0 0  5.200000000000001e-06 0 0  5.300000000000001e-06 0 0  5.4e-06 0 0  5.500000000000001e-06 0 0  5.600000000000001e-06 0 0  5.7e-06 0 0  5.8e-06 0 0  5.9e-06 0 0  6e-06 0 0  6.100000000000001e-06 0 0  6.2e-06 0 0  6.300000000000001e-06 0 0  6.400000000000001e-06 0 0  6.5e-06 0 0  6.600000000000001e-06 0 0  6.7e-06 0 0  6.8e-06 0 0  6.900000000000001e-06 0 0  7.000000000000001e-06 0 0  7.1e-06 0 0  7.200000000000001e-06 0 0  7.3e-06 0 0  7.400000000000001e-06 0 0  7.5e-06 0 0  7.6e-06 0 0  7.700000000000001e-06 0 0  7.800000000000002e-06 0 0  7.900000000000001e-06 0 0  8e-06 0 0  8.1e-06 0 0  8.200000000000001e-06 0 0  8.300000000000002e-06 0 0  8.400000000000001e-06 0 0  8.5e-06 0 0  8.600000000000001e-06 0 0  8.700000000000001e-06 0 0  8.8e-06 0 0  8.900000000000001e-06 0 0  9e-06 0 0  9.100000000000001e-06 0 0  9.2e-06 0 0  9.300000000000001e-06 0 0  9.400000000000001e-06 0 0  9.500000000000001e-06 0 0  9.600000000000001e-06 0 0  9.7e-06 0 0  9.800000000000001e-06 0 0  9.9e-06 0 0  1e-05 0 0  </DataArray>
</Points>
<Cells>
<DataArray  type="UInt32"  Name="connectivity"  format="ascii">0 1  1 2  2 3  3 4  4 5  5 6  6 7  7 8  8 9  9 10  10 11  11 12  12 13  13 14  14 15  15 16  16 17  17 18  18 19  19 20  20 21  21 22  22 23  23 24  24 25  25 26  26 27  27 28  28 29  29 30  30 31  31 32  32 33  33 34  34 35  35 36  36 37  37 38  38 39  39 40  40 41  41 42  42 43  43 44  44 45  45 46  46 47  47 48  48 49  49 50  50 51  51 52  52 53  53 54  54 55  55 56  56 57  57 58  58 59  59 60  60 61  61 62  62 63  63 64  64 65  65 66  66 67  67 68  68 69  69 70  70 71  71 72  72 73  73 74  74 75  75 76  76 77  77 78  78 79  79 80  80 81  81 82  82 83  83 84  84 85  85 86  86 87  87 88  88 89  89 90  90 91  91 92  92 93  93 94  94 95  95 96  96 97  97 98  98 99  99 100  </DataArray>
<DataArray  type="UInt32"  Name="offsets"  format="ascii">2 4 6 8 10 12 14 16 18 20 22 24 26 28 30 32 34 36 38 40 42 44 46 48 50 52 54 56 58 60 62 64 66 68 70 72 74 76 78 80 82 84 86 88 90 92 94 96 98 100 102 104 106 108 110 112 114 116 118 120 122 124 126 128 130 132 134 136 138 140 142 144 146 148 150 152 154 156 158 160 162 164 166 168 170 172 174 176 178 180 182 184 186 188 190 192 194 196 198 200 </DataArray>
<DataArray  type="UInt8"  Name="types"  format="ascii">3 3 3 3 3 3 3 3 3 3 3 3 3 3 3 3 3 3 3 3 3 3 3 3 3 3 3 3 3 3 3 3 3 3 3 3 3 3 3 3 3 3 3 3 3 3 3 3 3 3 3 3 3 3 3 3 3 3 3 3 3 3 3 3 3 3 3 3 3 3 3 3 3 3 3 3 3 3 3 3 3 3 3 3 3 3 3 3 3 3 3 3 3 3 3 3 3 3 3 3 </DataArray>
</Cells>
<PointData  Scalars="f_912"> 
<DataArray  type="Float64"  Name="f_912"  format="ascii">2.5849394142282100e-19  2.0122669582625188e-03  1.8558257031221872e-03  1.9864003845660025e-03  2.0139141338382629e-03  2.0466770258765099e-03  2.0642040624848103e-03  2.0766647512217408e-03  2.0845305058047985e-03  2.0897384644257134e-03  2.0931206404379557e-03  2.0953355692115514e-03  2.0967825120265910e-03  2.0977304836184481e-03  2.0983530613350745e-03  2.0987643229390747e-03  2.0990387670317000e-03  2.0992252564542759e-03  2.0993558553790695e-03  2.0994516496861456e-03  2.0995265071891609e-03  2.0995895119143809e-03  2.0996465239638959e-03  2.0997011701237829e-03  2.0997554660592611e-03  2.0998102065173060e-03  2.0998652177316589e-03  2.0999195385263876e-03  2.0999715769179335e-03  2.1000192731601783e-03  2.1000602854871712e-03  2.1000922001755541e-03  2.1001127533963318e-03  2.1001200404490903e-03  2.1001126809663396e-03  2.1000899088797166e-03  2.1000515641296626e-03  2.0999979775596514e-03  2.0999297571392943e-03  2.0998474977594068e-03  2.0997514447042087e-03  2.0996411414819327e-03  2.0995150875302935e-03  2.0993704234804236e-03  2.0992026543948531e-03  2.0990054170008767e-03  2.0987702961192296e-03  2.0984866967386239e-03  2.0981417769019850e-03  2.0977204336325916e-03  2.0972052947283402e-03  2.0965765840693473e-03  2.0958115833980785e-03  2.0948832275206070e-03  2.0937572392496348e-03  2.0923873359501985e-03  2.0907087114800139e-03  2.0886313506106556e-03  2.0860364205553413e-03  2.0827803504085561e-03  2.0787119576766442e-03  2.0737096448398841e-03  2.0677439733899549e-03  2.0609758019650513e-03  2.0538463780181817e-03  2.0472382718793492e-03  2.0419075392522912e-03  2.0380301753149966e-03  2.0354092654306225e-03  2.0333254635273349e-03  2.0304159595148949e-03  2.0246844479223322e-03  2.0134348226753577e-03  1.9921490606560465e-03  1.9529062527324033e-03  1.8818892964209677e-03  1.7546506829179895e-03  1.5302656403472089e-03  1.1370914696844606e-03  4.6360592724442584e-04  -5.6213375263410438e-04  -1.7228534514631480e-03  -5.4804525273978149e-03  -1.5759475132836663e-03  -5.7945478819887439e-03  3.8074218132318209e-03  -3.4778548659039035e-03  -3.2752374556119647e-04  -1.6719629016032322e-04  3.1032448265274281e-04  4.3194733302150010e-04  4.9200164251843130e-04  4.6855114885001938e-04  4.1086057937571871e-04  3.3531862610066565e-04  2.5858281213737226e-04  1.8893403298639013e-04  1.2988891159080047e-04  8.0896303579895535e-05  3.9195332498383739e-05  8.0779356694630992e-21  </DataArray> 
</PointData> 
</Piece>
</UnstructuredGrid>
</VTKFile>