<?xml version="1.0"?>
<VTKFile type="UnstructuredGrid"  version="0.1"  >
<UnstructuredGrid>
<Piece  NumberOfPoints="101" NumberOfCells="100">
<Points>
<DataArray  type="Float64"  NumberOfComponents="3"  format="ascii">0 0 0  1e-07 0 0  2e-07 0 0  3e-07 0 0  4e-07 0 0  5e-07 0 0  6.000000000000001e-07 0 0  7.000000000000001e-07 0 0  8.000000000000001e-07 0 0  9.000000000000001e-07 0 0  1e-06 0 0  1.1e-06 0 0  1.2e-06 0 0  1.3e-06 0 0  1.4e-06 0 0  1.5e-06 0 0  1.6e-06 0 0  1.7e-06 0 0  1.8e-06 0 0  1.9e-06 0 0  2e-06 0 0  2.1e-06 0 0  2.2e-06 0 0  2.3e-06 0 0  2.4e-06 0 0  2.5e-06 0 0  2.600000000000001e-06 0 0  2.7e-06 0 0  2.8e-06 0 0  2.9e-06 0 0  3e-06 0 0  3.1e-06 0 0  3.2e-06 0 0  3.300000000000001e-06 0 0  3.4e-06 0 0  3.5e-06 0 0  3.6e-06 0 0  3.700000000000001e-06 0 0  3.8e-06 0 0  3.900000000000001e-06 0 0  4e-06 0 0  4.100000000000001e-06 0 0  4.2e-06 0 0  4.3e-06 0 0  4.4e-06 0 0  4.5e-06 0 0  4.6e-06 0 0  4.700000000000001e-06 0 0  4.800000000000001e-06 0 0  4.900000000000001e-06 0 0  5e-06 0 0  5.1e-06 0 0  5.200000000000001e-06 0 0  5.300000000000001e-06 0 0  5.4e-06 0 0  5.500000000000001e-06 0 0  5.600000000000001e-06 0 0  5.7e-06 0 0  5.8e-06 0 0  5.9e-06 0 0  6e-06 0 0  6.100000000000001e-06 0 0  6.2e-06 0 0  6.300000000000001e-06 0 0  6.400000000000001e-06 0 0  6.5e-06 0 0  6.600000000000001e-06 0 0  6.7e-06 0 0  6.8e-06 0 0  6.900000000000001e-06 0 0  7.000000000000001e-06 0 0  7.1e-06 0 0  7.200000000000001e-06 0 0  7.3e-06 0 0  7.400000000000001e-06 0 0  7.5e-06 0 0  7.6e-06 0 0  7.700000000000001e-06 0 0  7.800000000000002e-06 0 0  7.900000000000001e-06 0 0  8e-06 0 0  8.1e-06 0 0  8.200000000000001e-06 0 0  8.300000000000002e-06 0 0  8.400000000000001e-06 0 0  8.5e-06 0 0  8.600000000000001e-06 0 0  8.700000000000001e-06 0 0  8.8e-06 0 0  8.900000000000001e-06 0 0  9e-06 0 0  9.100000000000001e-06 0 0  9.2e-06 0 0  9.300000000000001e-06 0 0  9.400000000000001e-06 0 0  9.500000000000001e-06 0 0  9.600000000000001e-06 0 0  9.7e-06 0 0  9.800000000000001e-06 0 0  9.9e-06 0 0  1e-05 0 0  </DataArray>
</Points>
<Cells>
<DataArray  type="UInt32"  Name="connectivity"  format="ascii">0 1  1 2  2 3  3 4  4 5  5 6  6 7  7 8  8 9  9 10  10 11  11 12  12 13  13 14  14 15  15 16  16 17  17 18  18 19  19 20  20 21  21 22  22 23  23 24  24 25  25 26  26 27  27 28  28 29  29 30  30 31  31 32  32 33  33 34  34 35  35 36  36 37  37 38  38 39  39 40  40 41  41 42  42 43  43 44  44 45  45 46  46 47  47 48  48 49  49 50  50 51  51 52  52 53  53 54  54 55  55 56  56 57  57 58  58 59  59 60  60 61  61 62  62 63  63 64  64 65  65 66  66 67  67 68  68 69  69 70  70 71  71 72  72 73  73 74  74 75  75 76  76 77  77 78  78 79  79 80  80 81  81 82  82 83  83 84  84 85  85 86  86 87  87 88  88 89  89 90  90 91  91 92  92 93  93 94  94 95  95 96  96 97  97 98  98 99  99 100  </DataArray>
<DataArray  type="UInt32"  Name="offsets"  format="ascii">2 4 6 8 10 12 14 16 18 20 22 24 26 28 30 32 34 36 38 40 42 44 46 48 50 52 54 56 58 60 62 64 66 68 70 72 74 76 78 80 82 84 86 88 90 92 94 96 98 100 102 104 106 108 110 112 114 116 118 120 122 124 126 128 130 132 134 136 138 140 142 144 146 148 150 152 154 156 158 160 162 164 166 168 170 172 174 176 178 180 182 184 186 188 190 192 194 196 198 200 </DataArray>
<DataArray  type="UInt8"  Name="types"  format="ascii">3 3 3 3 3 3 3 3 3 3 3 3 3 3 3 3 3 3 3 3 3 3 3 3 3 3 3 3 3 3 3 3 3 3 3 3 3 3 3 3 3 3 3 3 3 3 3 3 3 3 3 3 3 3 3 3 3 3 3 3 3 3 3 3 3 3 3 3 3 3 3 3 3 3 3 3 3 3 3 3 3 3 3 3 3 3 3 3 3 3 3 3 3 3 3 3 3 3 3 3 </DataArray>
</Cells>
<PointData  Scalars="f_4487"> 
<DataArray  type="Float64"  Name="f_4487"  format="ascii">-6.4623485355705251e-20  1.0645691093518570e-03  1.2487838548758826e-03  1.4234126026973894e-03  1.5163251797348681e-03  1.5804653705317922e-03  1.6213563152723120e-03  1.6485869455233734e-03  1.6665205926700987e-03  1.6784212510244374e-03  1.6863056326434165e-03  1.6915347809120169e-03  1.6950008645782108e-03  1.6972977366964132e-03  1.6988189256023395e-03  1.6998258362497843e-03  1.7004919290683838e-03  1.7009323008109717e-03  1.7012232697663991e-03  1.7014154128429863e-03  1.7015422254538211e-03  1.7016258762334268e-03  1.7016810277838764e-03  1.7017173720640969e-03  1.7017413115712474e-03  1.7017570733408255e-03  1.7017674465901462e-03  1.7017742708213806e-03  1.7017787585882128e-03  1.7017817087958643e-03  1.7017836475749497e-03  1.7017849212680217e-03  1.7017857577736235e-03  1.7017863069944870e-03  1.7017866674946139e-03  1.7017869040592067e-03  1.7017870592568667e-03  1.7017871610494413e-03  1.7017872277985556e-03  1.7017872715581613e-03  1.7017873002390931e-03  1.7017873190315542e-03  1.7017873313395803e-03  1.7017873393946801e-03  1.7017873446585547e-03  1.7017873480871793e-03  1.7017873503037083e-03  1.7017873517112781e-03  1.7017873525660503e-03  1.7017873530236613e-03  1.7017873531674662e-03  1.7017873530236610e-03  1.7017873525660508e-03  1.7017873517112775e-03  1.7017873503037090e-03  1.7017873480871786e-03  1.7017873446585536e-03  1.7017873393946812e-03  1.7017873313395796e-03  1.7017873190315529e-03  1.7017873002390929e-03  1.7017872715581600e-03  1.7017872277985549e-03  1.7017871610494402e-03  1.7017870592568657e-03  1.7017869040592062e-03  1.7017866674946132e-03  1.7017863069944857e-03  1.7017857577736224e-03  1.7017849212680224e-03  1.7017836475749495e-03  1.7017817087958647e-03  1.7017787585882121e-03  1.7017742708213802e-03  1.7017674465901465e-03  1.7017570733408255e-03  1.7017413115712479e-03  1.7017173720640974e-03  1.7016810277838761e-03  1.7016258762334276e-03  1.7015422254538207e-03  1.7014154128429883e-03  1.7012232697663984e-03  1.7009323008109725e-03  1.7004919290683844e-03  1.6998258362497848e-03  1.6988189256023397e-03  1.6972977366964143e-03  1.6950008645782114e-03  1.6915347809120173e-03  1.6863056326434163e-03  1.6784212510244376e-03  1.6665205926701000e-03  1.6485869455233745e-03  1.6213563152723115e-03  1.5804653705317915e-03  1.5163251797348676e-03  1.4234126026973902e-03  1.2487838548758817e-03  1.0645691093518611e-03  6.4623485355704794e-20  </DataArray> 
</PointData> 
</Piece>
</UnstructuredGrid>
</VTKFile>