<?xml version="1.0"?>
<VTKFile type="UnstructuredGrid"  version="0.1"  >
<UnstructuredGrid>
<Piece  NumberOfPoints="101" NumberOfCells="100">
<Points>
<DataArray  type="Float64"  NumberOfComponents="3"  format="ascii">0 0 0  1e-07 0 0  2e-07 0 0  3e-07 0 0  4e-07 0 0  5e-07 0 0  6.000000000000001e-07 0 0  7.000000000000001e-07 0 0  8.000000000000001e-07 0 0  9.000000000000001e-07 0 0  1e-06 0 0  1.1e-06 0 0  1.2e-06 0 0  1.3e-06 0 0  1.4e-06 0 0  1.5e-06 0 0  1.6e-06 0 0  1.7e-06 0 0  1.8e-06 0 0  1.9e-06 0 0  2e-06 0 0  2.1e-06 0 0  2.2e-06 0 0  2.3e-06 0 0  2.4e-06 0 0  2.5e-06 0 0  2.600000000000001e-06 0 0  2.7e-06 0 0  2.8e-06 0 0  2.9e-06 0 0  3e-06 0 0  3.1e-06 0 0  3.2e-06 0 0  3.300000000000001e-06 0 0  3.4e-06 0 0  3.5e-06 0 0  3.6e-06 0 0  3.700000000000001e-06 0 0  3.8e-06 0 0  3.900000000000001e-06 0 0  4e-06 0 0  4.100000000000001e-06 0 0  4.2e-06 0 0  4.3e-06 0 0  4.4e-06 0 0  4.5e-06 0 0  4.6e-06 0 0  4.700000000000001e-06 0 0  4.800000000000001e-06 0 0  4.900000000000001e-06 0 0  5e-06 0 0  5.1e-06 0 0  5.200000000000001e-06 0 0  5.300000000000001e-06 0 0  5.4e-06 0 0  5.500000000000001e-06 0 0  5.600000000000001e-06 0 0  5.7e-06 0 0  5.8e-06 0 0  5.9e-06 0 0  6e-06 0 0  6.100000000000001e-06 0 0  6.2e-06 0 0  6.300000000000001e-06 0 0  6.400000000000001e-06 0 0  6.5e-06 0 0  6.600000000000001e-06 0 0  6.7e-06 0 0  6.8e-06 0 0  6.900000000000001e-06 0 0  7.000000000000001e-06 0 0  7.1e-06 0 0  7.200000000000001e-06 0 0  7.3e-06 0 0  7.400000000000001e-06 0 0  7.5e-06 0 0  7.6e-06 0 0  7.700000000000001e-06 0 0  7.800000000000002e-06 0 0  7.900000000000001e-06 0 0  8e-06 0 0  8.1e-06 0 0  8.200000000000001e-06 0 0  8.300000000000002e-06 0 0  8.400000000000001e-06 0 0  8.5e-06 0 0  8.600000000000001e-06 0 0  8.700000000000001e-06 0 0  8.8e-06 0 0  8.900000000000001e-06 0 0  9e-06 0 0  9.100000000000001e-06 0 0  9.2e-06 0 0  9.300000000000001e-06 0 0  9.400000000000001e-06 0 0  9.500000000000001e-06 0 0  9.600000000000001e-06 0 0  9.7e-06 0 0  9.800000000000001e-06 0 0  9.9e-06 0 0  1e-05 0 0  </DataArray>
</Points>
<Cells>
<DataArray  type="UInt32"  Name="connectivity"  format="ascii">0 1  1 2  2 3  3 4  4 5  5 6  6 7  7 8  8 9  9 10  10 11  11 12  12 13  13 14  14 15  15 16  16 17  17 18  18 19  19 20  20 21  21 22  22 23  23 24  24 25  25 26  26 27  27 28  28 29  29 30  30 31  31 32  32 33  33 34  34 35  35 36  36 37  37 38  38 39  39 40  40 41  41 42  42 43  43 44  44 45  45 46  46 47  47 48  48 49  49 50  50 51  51 52  52 53  53 54  54 55  55 56  56 57  57 58  58 59  59 60  60 61  61 62  62 63  63 64  64 65  65 66  66 67  67 68  68 69  69 70  70 71  71 72  72 73  73 74  74 75  75 76  76 77  77 78  78 79  79 80  80 81  81 82  82 83  83 84  84 85  85 86  86 87  87 88  88 89  89 90  90 91  91 92  92 93  93 94  94 95  95 96  96 97  97 98  98 99  99 100  </DataArray>
<DataArray  type="UInt32"  Name="offsets"  format="ascii">2 4 6 8 10 12 14 16 18 20 22 24 26 28 30 32 34 36 38 40 42 44 46 48 50 52 54 56 58 60 62 64 66 68 70 72 74 76 78 80 82 84 86 88 90 92 94 96 98 100 102 104 106 108 110 112 114 116 118 120 122 124 126 128 130 132 134 136 138 140 142 144 146 148 150 152 154 156 158 160 162 164 166 168 170 172 174 176 178 180 182 184 186 188 190 192 194 196 198 200 </DataArray>
<DataArray  type="UInt8"  Name="types"  format="ascii">3 3 3 3 3 3 3 3 3 3 3 3 3 3 3 3 3 3 3 3 3 3 3 3 3 3 3 3 3 3 3 3 3 3 3 3 3 3 3 3 3 3 3 3 3 3 3 3 3 3 3 3 3 3 3 3 3 3 3 3 3 3 3 3 3 3 3 3 3 3 3 3 3 3 3 3 3 3 3 3 3 3 3 3 3 3 3 3 3 3 3 3 3 3 3 3 3 3 3 3 </DataArray>
</Cells>
<PointData  Scalars="f_34"> 
<DataArray  type="Float64"  Name="f_34"  format="ascii">0.0000000000000000e+00  4.1803671295870250e-79  8.3566087415189865e-79  1.2524603389528672e-78  1.6680237766106588e-78  2.0819410761838864e-78  2.4938037512707135e-78  2.9032053431356125e-78  3.3097418218350658e-78  3.7130119849463417e-78  4.1126178535058462e-78  4.5081650647663118e-78  4.8992632613852178e-78  5.2855264766603564e-78  5.6665735154323763e-78  6.0420283302783779e-78  6.4115203926253152e-78  6.7746850584169714e-78  7.1311639279736094e-78  7.4806051996891942e-78  7.8226640172170961e-78  8.1570028098016763e-78  8.4832916254198603e-78  8.8012084564039695e-78  9.1104395572243813e-78  9.4106797541185042e-78  9.7016327462604462e-78  9.9830113981741412e-78  1.0254538023101412e-77  1.0515944657045256e-77  1.0766973323217981e-77  1.1007376286633132e-77  1.1236916298590021e-77  1.1455366830809549e-77  1.1662512298990261e-77  1.1858148275564043e-77  1.2042081691441429e-77  1.2214131026547501e-77  1.2374126488960277e-77  1.2521910182474846e-77  1.2657336262427844e-77  1.2780271079628555e-77  1.2890593312254495e-77  1.2988194085581435e-77  1.3072977079429583e-77  1.3144858623219985e-77  1.3203767778547286e-77  1.3249646409187366e-77  1.3282449238470773e-77  1.3302143893965339e-77  1.3308710939423858e-77  1.3302143893965311e-77  1.3282449238470714e-77  1.3249646409187283e-77  1.3203767778547178e-77  1.3144858623219853e-77  1.3072977079429426e-77  1.2988194085581251e-77  1.2890593312254284e-77  1.2780271079628314e-77  1.2657336262427575e-77  1.2521910182474545e-77  1.2374126488959953e-77  1.2214131026547152e-77  1.2042081691441059e-77  1.1858148275563658e-77  1.1662512298989862e-77  1.1455366830809142e-77  1.1236916298589614e-77  1.1007376286632720e-77  1.0766973323217569e-77  1.0515944657044849e-77  1.0254538023101006e-77  9.9830113981737424e-78  9.7016327462600512e-78  9.4106797541181226e-78  9.1104395572240131e-78  8.8012084564036186e-78  8.4832916254195247e-78  8.1570028098013570e-78  7.8226640172168018e-78  7.4806051996889200e-78  7.1311639279733534e-78  6.7746850584167308e-78  6.4115203926250947e-78  6.0420283302781784e-78  5.6665735154321922e-78  5.2855264766601839e-78  4.8992632613850634e-78  4.5081650647661708e-78  4.1126178535057254e-78  3.7130119849462343e-78  3.3097418218349776e-78  2.9032053431355348e-78  2.4938037512706454e-78  2.0819410761838335e-78  1.6680237766106135e-78  1.2524603389528372e-78  8.3566087415187648e-79  4.1803671295869489e-79  0.0000000000000000e+00  </DataArray> 
</PointData> 
</Piece>
</UnstructuredGrid>
</VTKFile>