<?xml version="1.0"?>
<VTKFile type="UnstructuredGrid"  version="0.1"  >
<UnstructuredGrid>
<Piece  NumberOfPoints="101" NumberOfCells="100">
<Points>
<DataArray  type="Float64"  NumberOfComponents="3"  format="ascii">0 0 0  1e-07 0 0  2e-07 0 0  3e-07 0 0  4e-07 0 0  5e-07 0 0  6.000000000000001e-07 0 0  7.000000000000001e-07 0 0  8.000000000000001e-07 0 0  9.000000000000001e-07 0 0  1e-06 0 0  1.1e-06 0 0  1.2e-06 0 0  1.3e-06 0 0  1.4e-06 0 0  1.5e-06 0 0  1.6e-06 0 0  1.7e-06 0 0  1.8e-06 0 0  1.9e-06 0 0  2e-06 0 0  2.1e-06 0 0  2.2e-06 0 0  2.3e-06 0 0  2.4e-06 0 0  2.5e-06 0 0  2.600000000000001e-06 0 0  2.7e-06 0 0  2.8e-06 0 0  2.9e-06 0 0  3e-06 0 0  3.1e-06 0 0  3.2e-06 0 0  3.300000000000001e-06 0 0  3.4e-06 0 0  3.5e-06 0 0  3.6e-06 0 0  3.700000000000001e-06 0 0  3.8e-06 0 0  3.900000000000001e-06 0 0  4e-06 0 0  4.100000000000001e-06 0 0  4.2e-06 0 0  4.3e-06 0 0  4.4e-06 0 0  4.5e-06 0 0  4.6e-06 0 0  4.700000000000001e-06 0 0  4.800000000000001e-06 0 0  4.900000000000001e-06 0 0  5e-06 0 0  5.1e-06 0 0  5.200000000000001e-06 0 0  5.300000000000001e-06 0 0  5.4e-06 0 0  5.500000000000001e-06 0 0  5.600000000000001e-06 0 0  5.7e-06 0 0  5.8e-06 0 0  5.9e-06 0 0  6e-06 0 0  6.100000000000001e-06 0 0  6.2e-06 0 0  6.300000000000001e-06 0 0  6.400000000000001e-06 0 0  6.5e-06 0 0  6.600000000000001e-06 0 0  6.7e-06 0 0  6.8e-06 0 0  6.900000000000001e-06 0 0  7.000000000000001e-06 0 0  7.1e-06 0 0  7.200000000000001e-06 0 0  7.3e-06 0 0  7.400000000000001e-06 0 0  7.5e-06 0 0  7.6e-06 0 0  7.700000000000001e-06 0 0  7.800000000000002e-06 0 0  7.900000000000001e-06 0 0  8e-06 0 0  8.1e-06 0 0  8.200000000000001e-06 0 0  8.300000000000002e-06 0 0  8.400000000000001e-06 0 0  8.5e-06 0 0  8.600000000000001e-06 0 0  8.700000000000001e-06 0 0  8.8e-06 0 0  8.900000000000001e-06 0 0  9e-06 0 0  9.100000000000001e-06 0 0  9.2e-06 0 0  9.300000000000001e-06 0 0  9.400000000000001e-06 0 0  9.500000000000001e-06 0 0  9.600000000000001e-06 0 0  9.7e-06 0 0  9.800000000000001e-06 0 0  9.9e-06 0 0  1e-05 0 0  </DataArray>
</Points>
<Cells>
<DataArray  type="UInt32"  Name="connectivity"  format="ascii">0 1  1 2  2 3  3 4  4 5  5 6  6 7  7 8  8 9  9 10  10 11  11 12  12 13  13 14  14 15  15 16  16 17  17 18  18 19  19 20  20 21  21 22  22 23  23 24  24 25  25 26  26 27  27 28  28 29  29 30  30 31  31 32  32 33  33 34  34 35  35 36  36 37  37 38  38 39  39 40  40 41  41 42  42 43  43 44  44 45  45 46  46 47  47 48  48 49  49 50  50 51  51 52  52 53  53 54  54 55  55 56  56 57  57 58  58 59  59 60  60 61  61 62  62 63  63 64  64 65  65 66  66 67  67 68  68 69  69 70  70 71  71 72  72 73  73 74  74 75  75 76  76 77  77 78  78 79  79 80  80 81  81 82  82 83  83 84  84 85  85 86  86 87  87 88  88 89  89 90  90 91  91 92  92 93  93 94  94 95  95 96  96 97  97 98  98 99  99 100  </DataArray>
<DataArray  type="UInt32"  Name="offsets"  format="ascii">2 4 6 8 10 12 14 16 18 20 22 24 26 28 30 32 34 36 38 40 42 44 46 48 50 52 54 56 58 60 62 64 66 68 70 72 74 76 78 80 82 84 86 88 90 92 94 96 98 100 102 104 106 108 110 112 114 116 118 120 122 124 126 128 130 132 134 136 138 140 142 144 146 148 150 152 154 156 158 160 162 164 166 168 170 172 174 176 178 180 182 184 186 188 190 192 194 196 198 200 </DataArray>
<DataArray  type="UInt8"  Name="types"  format="ascii">3 3 3 3 3 3 3 3 3 3 3 3 3 3 3 3 3 3 3 3 3 3 3 3 3 3 3 3 3 3 3 3 3 3 3 3 3 3 3 3 3 3 3 3 3 3 3 3 3 3 3 3 3 3 3 3 3 3 3 3 3 3 3 3 3 3 3 3 3 3 3 3 3 3 3 3 3 3 3 3 3 3 3 3 3 3 3 3 3 3 3 3 3 3 3 3 3 3 3 3 </DataArray>
</Cells>
<PointData  Scalars="f_38"> 
<DataArray  type="Float64"  Name="f_38"  format="ascii">0.0000000000000000e+00  7.7518006500906271e-05  1.4708883110393060e-04  2.0884593512691989e-04  2.6370976836982777e-04  3.1244285000086750e-04  3.5573075031744209e-04  3.9418140221749982e-04  4.2833516866402839e-04  4.5867205350022864e-04  4.8561847119728757e-04  5.0955320624493676e-04  5.3081272720840523e-04  5.4969590780208416e-04  5.6646822320748547e-04  5.8136547861541979e-04  5.9459712191038748e-04  6.0634918660547072e-04  6.1678690614359823e-04  6.2605703614291414e-04  6.3428991711903513e-04  6.4160130660523913e-04  6.4809400637432511e-04  6.5385930760165955e-04  6.5897827426056918e-04  6.6352288277468294e-04  6.6755703393635388e-04  6.7113745130829557e-04  6.7431447873234963e-04  6.7713278815279899e-04  6.7963200770215402e-04  6.8184727887731693e-04  6.8380975063785066e-04  6.8554701737179064e-04  6.8708350688565564e-04  6.8844082387297723e-04  6.8963805368993879e-04  6.9069203070880260e-04  6.9161757502190396e-04  6.9242770082409430e-04  6.9313379940337593e-04  6.9374579931252411e-04  6.9427230597367826e-04  6.9472072267874347e-04  6.9509735468688218e-04  6.9540749788272603e-04  6.9565551324187152e-04  6.9584488815067338e-04  6.9597828544251531e-04  6.9605758084003615e-04  6.9608388932976815e-04  6.9605758084002715e-04  6.9597828544249796e-04  6.9584488815064801e-04  6.9565551324183813e-04  6.9540749788268440e-04  6.9509735468683317e-04  6.9472072267868709e-04  6.9427230597361484e-04  6.9374579931245396e-04  6.9313379940329884e-04  6.9242770082401039e-04  6.9161757502181364e-04  6.9069203070870567e-04  6.8963805368983634e-04  6.8844082387286925e-04  6.8708350688554277e-04  6.8554701737167355e-04  6.8380975063772934e-04  6.8184727887719225e-04  6.7963200770202652e-04  6.7713278815266899e-04  6.7431447873221757e-04  6.7113745130816264e-04  6.6755703393622042e-04  6.6352288277454947e-04  6.5897827426043625e-04  6.5385930760152782e-04  6.4809400637419489e-04  6.4160130660511131e-04  6.3428991711891023e-04  6.2605703614279239e-04  6.1678690614348005e-04  6.0634918660535623e-04  5.9459712191027711e-04  5.8136547861531408e-04  5.6646822320738474e-04  5.4969590780198875e-04  5.3081272720831578e-04  5.0955320624485338e-04  4.8561847119721075e-04  4.5867205350015838e-04  4.2833516866396551e-04  3.9418140221744399e-04  3.5573075031739357e-04  3.1244285000082706e-04  2.6370976836979481e-04  2.0884593512689544e-04  1.4708883110391385e-04  7.7518006500898478e-05  0.0000000000000000e+00  </DataArray> 
</PointData> 
</Piece>
</UnstructuredGrid>
</VTKFile>