<?xml version="1.0"?>
<VTKFile type="UnstructuredGrid"  version="0.1"  >
<UnstructuredGrid>
<Piece  NumberOfPoints="101" NumberOfCells="100">
<Points>
<DataArray  type="Float64"  NumberOfComponents="3"  format="ascii">0 0 0  1e-07 0 0  2e-07 0 0  3e-07 0 0  4e-07 0 0  5e-07 0 0  6.000000000000001e-07 0 0  7.000000000000001e-07 0 0  8.000000000000001e-07 0 0  9.000000000000001e-07 0 0  1e-06 0 0  1.1e-06 0 0  1.2e-06 0 0  1.3e-06 0 0  1.4e-06 0 0  1.5e-06 0 0  1.6e-06 0 0  1.7e-06 0 0  1.8e-06 0 0  1.9e-06 0 0  2e-06 0 0  2.1e-06 0 0  2.2e-06 0 0  2.3e-06 0 0  2.4e-06 0 0  2.5e-06 0 0  2.600000000000001e-06 0 0  2.7e-06 0 0  2.8e-06 0 0  2.9e-06 0 0  3e-06 0 0  3.1e-06 0 0  3.2e-06 0 0  3.300000000000001e-06 0 0  3.4e-06 0 0  3.5e-06 0 0  3.6e-06 0 0  3.700000000000001e-06 0 0  3.8e-06 0 0  3.900000000000001e-06 0 0  4e-06 0 0  4.100000000000001e-06 0 0  4.2e-06 0 0  4.3e-06 0 0  4.4e-06 0 0  4.5e-06 0 0  4.6e-06 0 0  4.700000000000001e-06 0 0  4.800000000000001e-06 0 0  4.900000000000001e-06 0 0  5e-06 0 0  5.1e-06 0 0  5.200000000000001e-06 0 0  5.300000000000001e-06 0 0  5.4e-06 0 0  5.500000000000001e-06 0 0  5.600000000000001e-06 0 0  5.7e-06 0 0  5.8e-06 0 0  5.9e-06 0 0  6e-06 0 0  6.100000000000001e-06 0 0  6.2e-06 0 0  6.300000000000001e-06 0 0  6.400000000000001e-06 0 0  6.5e-06 0 0  6.600000000000001e-06 0 0  6.7e-06 0 0  6.8e-06 0 0  6.900000000000001e-06 0 0  7.000000000000001e-06 0 0  7.1e-06 0 0  7.200000000000001e-06 0 0  7.3e-06 0 0  7.400000000000001e-06 0 0  7.5e-06 0 0  7.6e-06 0 0  7.700000000000001e-06 0 0  7.800000000000002e-06 0 0  7.900000000000001e-06 0 0  8e-06 0 0  8.1e-06 0 0  8.200000000000001e-06 0 0  8.300000000000002e-06 0 0  8.400000000000001e-06 0 0  8.5e-06 0 0  8.600000000000001e-06 0 0  8.700000000000001e-06 0 0  8.8e-06 0 0  8.900000000000001e-06 0 0  9e-06 0 0  9.100000000000001e-06 0 0  9.2e-06 0 0  9.300000000000001e-06 0 0  9.400000000000001e-06 0 0  9.500000000000001e-06 0 0  9.600000000000001e-06 0 0  9.7e-06 0 0  9.800000000000001e-06 0 0  9.9e-06 0 0  1e-05 0 0  </DataArray>
</Points>
<Cells>
<DataArray  type="UInt32"  Name="connectivity"  format="ascii">0 1  1 2  2 3  3 4  4 5  5 6  6 7  7 8  8 9  9 10  10 11  11 12  12 13  13 14  14 15  15 16  16 17  17 18  18 19  19 20  20 21  21 22  22 23  23 24  24 25  25 26  26 27  27 28  28 29  29 30  30 31  31 32  32 33  33 34  34 35  35 36  36 37  37 38  38 39  39 40  40 41  41 42  42 43  43 44  44 45  45 46  46 47  47 48  48 49  49 50  50 51  51 52  52 53  53 54  54 55  55 56  56 57  57 58  58 59  59 60  60 61  61 62  62 63  63 64  64 65  65 66  66 67  67 68  68 69  69 70  70 71  71 72  72 73  73 74  74 75  75 76  76 77  77 78  78 79  79 80  80 81  81 82  82 83  83 84  84 85  85 86  86 87  87 88  88 89  89 90  90 91  91 92  92 93  93 94  94 95  95 96  96 97  97 98  98 99  99 100  </DataArray>
<DataArray  type="UInt32"  Name="offsets"  format="ascii">2 4 6 8 10 12 14 16 18 20 22 24 26 28 30 32 34 36 38 40 42 44 46 48 50 52 54 56 58 60 62 64 66 68 70 72 74 76 78 80 82 84 86 88 90 92 94 96 98 100 102 104 106 108 110 112 114 116 118 120 122 124 126 128 130 132 134 136 138 140 142 144 146 148 150 152 154 156 158 160 162 164 166 168 170 172 174 176 178 180 182 184 186 188 190 192 194 196 198 200 </DataArray>
<DataArray  type="UInt8"  Name="types"  format="ascii">3 3 3 3 3 3 3 3 3 3 3 3 3 3 3 3 3 3 3 3 3 3 3 3 3 3 3 3 3 3 3 3 3 3 3 3 3 3 3 3 3 3 3 3 3 3 3 3 3 3 3 3 3 3 3 3 3 3 3 3 3 3 3 3 3 3 3 3 3 3 3 3 3 3 3 3 3 3 3 3 3 3 3 3 3 3 3 3 3 3 3 3 3 3 3 3 3 3 3 3 </DataArray>
</Cells>
<PointData  Scalars="f_44"> 
<DataArray  type="Float64"  Name="f_44"  format="ascii">0.0000000000000000e+00  4.5952271175260750e-04  3.8559829016120042e-04  4.0363422737254000e-04  3.9906119511100052e-04  4.0024415113175068e-04  3.9993451226374180e-04  4.0001629020501247e-04  3.9999456381216490e-04  4.0000038311139473e-04  3.9999879601224531e-04  3.9999920739268473e-04  3.9999907543680362e-04  3.9999909057952609e-04  3.9999906599603709e-04  3.9999905441882969e-04  3.9999904209394048e-04  3.9999904244214719e-04  3.9999904956835246e-04  3.9999915810111738e-04  3.9999919224176700e-04  4.0000025009050312e-04  3.9999912287659421e-04  4.0001098325704188e-04  3.9998244270126389e-04  4.0017855319848881e-04  3.9927424704863358e-04  3.9980091932163787e-04  4.0021554006250089e-04  3.9841351753869638e-04  4.0526482555374441e-04  3.9004678052831756e-04  4.5284920149144111e-04  1.1488416400787547e-04  2.8106329050942959e-03  2.8030122892117057e-05  4.6155517715643719e-04  3.6462042917958859e-04  3.7902378523379024e-04  3.6304103782340292e-04  3.4710574616678754e-04  3.2235773751336511e-04  2.8907502757570893e-04  2.4744117317824062e-04  2.0045399642082339e-04  1.5317181169814450e-04  1.1076476468296509e-04  7.6460011804214490e-05  5.0928423243157282e-05  3.3067562120566891e-05  2.1101482778792651e-05  1.3313043872673909e-05  8.3379651509646168e-06  5.1977847470224128e-06  3.2306547670241605e-06  2.0041922509813163e-06  1.2417953437299944e-06  7.6876902317615122e-07  4.7564235838368943e-07  2.9414702987003301e-07  1.8183681608046123e-07  1.1237008652239747e-07  6.9419226308757426e-08  4.2871831188995322e-08  2.6468384791830075e-08  1.6335945290153784e-08  1.0079060527588543e-08  6.2165879986801148e-09  3.8329904436720250e-09  2.3625152090932258e-09  1.4556623338889904e-09  8.9659046522317509e-10  5.5204397391894392e-10  3.3978039103562182e-10  2.0905827100795305e-10  1.2858207430744396e-10  7.9056473034159337e-11  4.8589063731005285e-11  2.9852732715089658e-11  1.8334737638926368e-11  1.1256700457355684e-11  6.9086666225139704e-12  4.2386263336596876e-12  2.5995906534563122e-12  1.5938043512625260e-12  9.7682460554680874e-13  5.9848195773417357e-13  3.6655543409032592e-13  2.2443118931123525e-13  1.3736664775173833e-13  8.4048531170648333e-14  5.1406341856441093e-14  3.1427022786384442e-14  1.9199293687620425e-14  1.1713274865556833e-14  7.1237825544652709e-15  4.2980541236876176e-15  2.5376991190246480e-15  1.4070232319017334e-15  6.2576666318428085e-16  0.0000000000000000e+00  </DataArray> 
</PointData> 
</Piece>
</UnstructuredGrid>
</VTKFile>