<?xml version="1.0"?>
<VTKFile type="UnstructuredGrid"  version="0.1"  >
<UnstructuredGrid>
<Piece  NumberOfPoints="101" NumberOfCells="100">
<Points>
<DataArray  type="Float64"  NumberOfComponents="3"  format="ascii">0 0 0  1e-07 0 0  2e-07 0 0  3e-07 0 0  4e-07 0 0  5e-07 0 0  6.000000000000001e-07 0 0  7.000000000000001e-07 0 0  8.000000000000001e-07 0 0  9.000000000000001e-07 0 0  1e-06 0 0  1.1e-06 0 0  1.2e-06 0 0  1.3e-06 0 0  1.4e-06 0 0  1.5e-06 0 0  1.6e-06 0 0  1.7e-06 0 0  1.8e-06 0 0  1.9e-06 0 0  2e-06 0 0  2.1e-06 0 0  2.2e-06 0 0  2.3e-06 0 0  2.4e-06 0 0  2.5e-06 0 0  2.600000000000001e-06 0 0  2.7e-06 0 0  2.8e-06 0 0  2.9e-06 0 0  3e-06 0 0  3.1e-06 0 0  3.2e-06 0 0  3.300000000000001e-06 0 0  3.4e-06 0 0  3.5e-06 0 0  3.6e-06 0 0  3.700000000000001e-06 0 0  3.8e-06 0 0  3.900000000000001e-06 0 0  4e-06 0 0  4.100000000000001e-06 0 0  4.2e-06 0 0  4.3e-06 0 0  4.4e-06 0 0  4.5e-06 0 0  4.6e-06 0 0  4.700000000000001e-06 0 0  4.800000000000001e-06 0 0  4.900000000000001e-06 0 0  5e-06 0 0  5.1e-06 0 0  5.200000000000001e-06 0 0  5.300000000000001e-06 0 0  5.4e-06 0 0  5.500000000000001e-06 0 0  5.600000000000001e-06 0 0  5.7e-06 0 0  5.8e-06 0 0  5.9e-06 0 0  6e-06 0 0  6.100000000000001e-06 0 0  6.2e-06 0 0  6.300000000000001e-06 0 0  6.400000000000001e-06 0 0  6.5e-06 0 0  6.600000000000001e-06 0 0  6.7e-06 0 0  6.8e-06 0 0  6.900000000000001e-06 0 0  7.000000000000001e-06 0 0  7.1e-06 0 0  7.200000000000001e-06 0 0  7.3e-06 0 0  7.400000000000001e-06 0 0  7.5e-06 0 0  7.6e-06 0 0  7.700000000000001e-06 0 0  7.800000000000002e-06 0 0  7.900000000000001e-06 0 0  8e-06 0 0  8.1e-06 0 0  8.200000000000001e-06 0 0  8.300000000000002e-06 0 0  8.400000000000001e-06 0 0  8.5e-06 0 0  8.600000000000001e-06 0 0  8.700000000000001e-06 0 0  8.8e-06 0 0  8.900000000000001e-06 0 0  9e-06 0 0  9.100000000000001e-06 0 0  9.2e-06 0 0  9.300000000000001e-06 0 0  9.400000000000001e-06 0 0  9.500000000000001e-06 0 0  9.600000000000001e-06 0 0  9.7e-06 0 0  9.800000000000001e-06 0 0  9.9e-06 0 0  1e-05 0 0  </DataArray>
</Points>
<Cells>
<DataArray  type="UInt32"  Name="connectivity"  format="ascii">0 1  1 2  2 3  3 4  4 5  5 6  6 7  7 8  8 9  9 10  10 11  11 12  12 13  13 14  14 15  15 16  16 17  17 18  18 19  19 20  20 21  21 22  22 23  23 24  24 25  25 26  26 27  27 28  28 29  29 30  30 31  31 32  32 33  33 34  34 35  35 36  36 37  37 38  38 39  39 40  40 41  41 42  42 43  43 44  44 45  45 46  46 47  47 48  48 49  49 50  50 51  51 52  52 53  53 54  54 55  55 56  56 57  57 58  58 59  59 60  60 61  61 62  62 63  63 64  64 65  65 66  66 67  67 68  68 69  69 70  70 71  71 72  72 73  73 74  74 75  75 76  76 77  77 78  78 79  79 80  80 81  81 82  82 83  83 84  84 85  85 86  86 87  87 88  88 89  89 90  90 91  91 92  92 93  93 94  94 95  95 96  96 97  97 98  98 99  99 100  </DataArray>
<DataArray  type="UInt32"  Name="offsets"  format="ascii">2 4 6 8 10 12 14 16 18 20 22 24 26 28 30 32 34 36 38 40 42 44 46 48 50 52 54 56 58 60 62 64 66 68 70 72 74 76 78 80 82 84 86 88 90 92 94 96 98 100 102 104 106 108 110 112 114 116 118 120 122 124 126 128 130 132 134 136 138 140 142 144 146 148 150 152 154 156 158 160 162 164 166 168 170 172 174 176 178 180 182 184 186 188 190 192 194 196 198 200 </DataArray>
<DataArray  type="UInt8"  Name="types"  format="ascii">3 3 3 3 3 3 3 3 3 3 3 3 3 3 3 3 3 3 3 3 3 3 3 3 3 3 3 3 3 3 3 3 3 3 3 3 3 3 3 3 3 3 3 3 3 3 3 3 3 3 3 3 3 3 3 3 3 3 3 3 3 3 3 3 3 3 3 3 3 3 3 3 3 3 3 3 3 3 3 3 3 3 3 3 3 3 3 3 3 3 3 3 3 3 3 3 3 3 3 3 </DataArray>
</Cells>
<PointData  Scalars="f_41"> 
<DataArray  type="Float64"  Name="f_41"  format="ascii">0.0000000000000000e+00  1.1396267724835096e-03  9.6872229703699286e-04  1.0069585653428765e-03  9.9768974936871959e-04  1.0000940489367648e-03  9.9949497231444171e-04  9.9966788478235121e-04  9.9963166906187986e-04  9.9964733736511392e-04  9.9964701936089591e-04  9.9964958952209111e-04  9.9965051033162129e-04  9.9965130766058630e-04  9.9965177302072713e-04  9.9965209046522620e-04  9.9965229357004562e-04  9.9965242706502827e-04  9.9965251388420577e-04  9.9965257061159830e-04  9.9965260761363515e-04  9.9965263176912894e-04  9.9965264753387024e-04  9.9965265782391466e-04  9.9965266454008351e-04  9.9965266892363086e-04  9.9965267178459146e-04  9.9965267365174806e-04  9.9965267487024971e-04  9.9965267566538732e-04  9.9965267618421492e-04  9.9965267652271260e-04  9.9965267674352446e-04  9.9965267688753275e-04  9.9965267698141685e-04  9.9965267704258320e-04  9.9965267708239120e-04  9.9965267710824444e-04  9.9965267712497194e-04  9.9965267713571942e-04  9.9965267714253103e-04  9.9965267714673340e-04  9.9965267714918152e-04  9.9965267715042142e-04  9.9965267715079438e-04  9.9965267715050512e-04  9.9965267714966248e-04  9.9965267714831286e-04  9.9965267714644977e-04  9.9965267714402614e-04  9.9965267714095850e-04  9.9965267713712715e-04  9.9965267713237336e-04  9.9965267712649351e-04  9.9965267711922827e-04  9.9965267711025541e-04  9.9965267709917270e-04  9.9965267708546838e-04  9.9965267706849932e-04  9.9965267704743999e-04  9.9965267702121336e-04  9.9965267698839564e-04  9.9965267694705783e-04  9.9965267689453518e-04  9.9965267682706484e-04  9.9965267673922538e-04  9.9965267662307654e-04  9.9965267646682566e-04  9.9965267625276490e-04  9.9965267595409821e-04  9.9965267553004896e-04  9.9965267491834795e-04  9.9965267402367971e-04  9.9965267269997663e-04  9.9965267072324644e-04  9.9965266774994731e-04  9.9965266325317001e-04  9.9965265642497077e-04  9.9965264602632636e-04  9.9965263015871098e-04  9.9965260590833605e-04  9.9965256882156143e-04  9.9965251202153711e-04  9.9965242514353818e-04  9.9965229160495260e-04  9.9965208847282885e-04  9.9965177101804395e-04  9.9965130566504867e-04  9.9965050836046195e-04  9.9964958759268157e-04  9.9964701748734902e-04  9.9964733556764484e-04  9.9963166733082662e-04  9.9966788319619791e-04  9.9949497064203124e-04  1.0000940479087392e-03  9.9768974673217778e-04  1.0069585673664707e-03  9.6872228768800979e-04  1.1396267815289231e-03  0.0000000000000000e+00  </DataArray> 
</PointData> 
</Piece>
</UnstructuredGrid>
</VTKFile>