<?xml version="1.0"?>
<VTKFile type="UnstructuredGrid"  version="0.1"  >
<UnstructuredGrid>
<Piece  NumberOfPoints="101" NumberOfCells="100">
<Points>
<DataArray  type="Float64"  NumberOfComponents="3"  format="ascii">0 0 0  1e-07 0 0  2e-07 0 0  3e-07 0 0  4e-07 0 0  5e-07 0 0  6.000000000000001e-07 0 0  7.000000000000001e-07 0 0  8.000000000000001e-07 0 0  9.000000000000001e-07 0 0  1e-06 0 0  1.1e-06 0 0  1.2e-06 0 0  1.3e-06 0 0  1.4e-06 0 0  1.5e-06 0 0  1.6e-06 0 0  1.7e-06 0 0  1.8e-06 0 0  1.9e-06 0 0  2e-06 0 0  2.1e-06 0 0  2.2e-06 0 0  2.3e-06 0 0  2.4e-06 0 0  2.5e-06 0 0  2.600000000000001e-06 0 0  2.7e-06 0 0  2.8e-06 0 0  2.9e-06 0 0  3e-06 0 0  3.1e-06 0 0  3.2e-06 0 0  3.300000000000001e-06 0 0  3.4e-06 0 0  3.5e-06 0 0  3.6e-06 0 0  3.700000000000001e-06 0 0  3.8e-06 0 0  3.900000000000001e-06 0 0  4e-06 0 0  4.100000000000001e-06 0 0  4.2e-06 0 0  4.3e-06 0 0  4.4e-06 0 0  4.5e-06 0 0  4.6e-06 0 0  4.700000000000001e-06 0 0  4.800000000000001e-06 0 0  4.900000000000001e-06 0 0  5e-06 0 0  5.1e-06 0 0  5.200000000000001e-06 0 0  5.300000000000001e-06 0 0  5.4e-06 0 0  5.500000000000001e-06 0 0  5.600000000000001e-06 0 0  5.7e-06 0 0  5.8e-06 0 0  5.9e-06 0 0  6e-06 0 0  6.100000000000001e-06 0 0  6.2e-06 0 0  6.300000000000001e-06 0 0  6.400000000000001e-06 0 0  6.5e-06 0 0  6.600000000000001e-06 0 0  6.7e-06 0 0  6.8e-06 0 0  6.900000000000001e-06 0 0  7.000000000000001e-06 0 0  7.1e-06 0 0  7.200000000000001e-06 0 0  7.3e-06 0 0  7.400000000000001e-06 0 0  7.5e-06 0 0  7.6e-06 0 0  7.700000000000001e-06 0 0  7.800000000000002e-06 0 0  7.900000000000001e-06 0 0  8e-06 0 0  8.1e-06 0 0  8.200000000000001e-06 0 0  8.300000000000002e-06 0 0  8.400000000000001e-06 0 0  8.5e-06 0 0  8.600000000000001e-06 0 0  8.700000000000001e-06 0 0  8.8e-06 0 0  8.900000000000001e-06 0 0  9e-06 0 0  9.100000000000001e-06 0 0  9.2e-06 0 0  9.300000000000001e-06 0 0  9.400000000000001e-06 0 0  9.500000000000001e-06 0 0  9.600000000000001e-06 0 0  9.7e-06 0 0  9.800000000000001e-06 0 0  9.9e-06 0 0  1e-05 0 0  </DataArray>
</Points>
<Cells>
<DataArray  type="UInt32"  Name="connectivity"  format="ascii">0 1  1 2  2 3  3 4  4 5  5 6  6 7  7 8  8 9  9 10  10 11  11 12  12 13  13 14  14 15  15 16  16 17  17 18  18 19  19 20  20 21  21 22  22 23  23 24  24 25  25 26  26 27  27 28  28 29  29 30  30 31  31 32  32 33  33 34  34 35  35 36  36 37  37 38  38 39  39 40  40 41  41 42  42 43  43 44  44 45  45 46  46 47  47 48  48 49  49 50  50 51  51 52  52 53  53 54  54 55  55 56  56 57  57 58  58 59  59 60  60 61  61 62  62 63  63 64  64 65  65 66  66 67  67 68  68 69  69 70  70 71  71 72  72 73  73 74  74 75  75 76  76 77  77 78  78 79  79 80  80 81  81 82  82 83  83 84  84 85  85 86  86 87  87 88  88 89  89 90  90 91  91 92  92 93  93 94  94 95  95 96  96 97  97 98  98 99  99 100  </DataArray>
<DataArray  type="UInt32"  Name="offsets"  format="ascii">2 4 6 8 10 12 14 16 18 20 22 24 26 28 30 32 34 36 38 40 42 44 46 48 50 52 54 56 58 60 62 64 66 68 70 72 74 76 78 80 82 84 86 88 90 92 94 96 98 100 102 104 106 108 110 112 114 116 118 120 122 124 126 128 130 132 134 136 138 140 142 144 146 148 150 152 154 156 158 160 162 164 166 168 170 172 174 176 178 180 182 184 186 188 190 192 194 196 198 200 </DataArray>
<DataArray  type="UInt8"  Name="types"  format="ascii">3 3 3 3 3 3 3 3 3 3 3 3 3 3 3 3 3 3 3 3 3 3 3 3 3 3 3 3 3 3 3 3 3 3 3 3 3 3 3 3 3 3 3 3 3 3 3 3 3 3 3 3 3 3 3 3 3 3 3 3 3 3 3 3 3 3 3 3 3 3 3 3 3 3 3 3 3 3 3 3 3 3 3 3 3 3 3 3 3 3 3 3 3 3 3 3 3 3 3 3 </DataArray>
</Cells>
<PointData  Scalars="f_34"> 
<DataArray  type="Float64"  Name="f_34"  format="ascii">0.0000000000000000e+00  1.5374296725780549e-87  3.0733420876854086e-87  4.6062214852013044e-87  6.1345550982271668e-87  7.6568346460048913e-87  9.1715578224078619e-87  1.0677229778535713e-86  1.2172364597949722e-86  1.3655486763092949e-86  1.5125132611447902e-86  1.6579851779994748e-86  1.8018208636544501e-86  1.9438783696534679e-86  2.0840175023889168e-86  2.2220999614559904e-86  2.3579894761384874e-86  2.4915519398915555e-86  2.6226555426886623e-86  2.7511709011021767e-86  2.8769711859891909e-86  2.9999322476565742e-86  3.1199327383817278e-86  3.2368542321681449e-86  3.3505813416175589e-86  3.4610018318033829e-86  3.5680067310330305e-86  3.6714904383898197e-86  3.7713508279483314e-86  3.8674893495603599e-86  3.9598111261120198e-86  4.0482250471559991e-86  4.1326438588265677e-86  4.2129842499486149e-86  4.2891669342557137e-86  4.3611167286361016e-86  4.4287626273293267e-86  4.4920378720003688e-86  4.5508800176220492e-86  4.6052309941007401e-86  4.6550371635845283e-86  4.7002493733973065e-86  4.7408230045465248e-86  4.7767180157567542e-86  4.8078989829855878e-86  4.8343351343828939e-86  4.8560003806589193e-86  4.8728733408312659e-86  4.8849373633253388e-86  4.8921805424074452e-86  4.8945957299343099e-86  4.8921805424074344e-86  4.8849373633253181e-86  4.8728733408312352e-86  4.8560003806588800e-86  4.8343351343828461e-86  4.8078989829855306e-86  4.7767180157566878e-86  4.7408230045464476e-86  4.7002493733972186e-86  4.6550371635844290e-86  4.6052309941006287e-86  4.5508800176219292e-86  4.4920378720002388e-86  4.4287626273291888e-86  4.3611167286359581e-86  4.2891669342555658e-86  4.2129842499484642e-86  4.1326438588264170e-86  4.0482250471558469e-86  3.9598111261118684e-86  3.8674893495602092e-86  3.7713508279481807e-86  3.6714904383896718e-86  3.5680067310328833e-86  3.4610018318032408e-86  3.3505813416174225e-86  3.2368542321680148e-86  3.1199327383816031e-86  2.9999322476564556e-86  2.8769711859890816e-86  2.7511709011020749e-86  2.6226555426885670e-86  2.4915519398914659e-86  2.3579894761384059e-86  2.2220999614559165e-86  2.0840175023888479e-86  1.9438783696534029e-86  1.8018208636543926e-86  1.6579851779994222e-86  1.5125132611447450e-86  1.3655486763092546e-86  1.2172364597949392e-86  1.0677229778535422e-86  9.1715578224076065e-87  7.6568346460046939e-87  6.1345550982269989e-87  4.6062214852011928e-87  3.0733420876853264e-87  1.5374296725780265e-87  0.0000000000000000e+00  </DataArray> 
</PointData> 
</Piece>
</UnstructuredGrid>
</VTKFile>