<?xml version="1.0"?>
<VTKFile type="UnstructuredGrid"  version="0.1"  >
<UnstructuredGrid>
<Piece  NumberOfPoints="101" NumberOfCells="100">
<Points>
<DataArray  type="Float64"  NumberOfComponents="3"  format="ascii">0 0 0  1e-07 0 0  2e-07 0 0  3e-07 0 0  4e-07 0 0  5e-07 0 0  6.000000000000001e-07 0 0  7.000000000000001e-07 0 0  8.000000000000001e-07 0 0  9.000000000000001e-07 0 0  1e-06 0 0  1.1e-06 0 0  1.2e-06 0 0  1.3e-06 0 0  1.4e-06 0 0  1.5e-06 0 0  1.6e-06 0 0  1.7e-06 0 0  1.8e-06 0 0  1.9e-06 0 0  2e-06 0 0  2.1e-06 0 0  2.2e-06 0 0  2.3e-06 0 0  2.4e-06 0 0  2.5e-06 0 0  2.600000000000001e-06 0 0  2.7e-06 0 0  2.8e-06 0 0  2.9e-06 0 0  3e-06 0 0  3.1e-06 0 0  3.2e-06 0 0  3.300000000000001e-06 0 0  3.4e-06 0 0  3.5e-06 0 0  3.6e-06 0 0  3.700000000000001e-06 0 0  3.8e-06 0 0  3.900000000000001e-06 0 0  4e-06 0 0  4.100000000000001e-06 0 0  4.2e-06 0 0  4.3e-06 0 0  4.4e-06 0 0  4.5e-06 0 0  4.6e-06 0 0  4.700000000000001e-06 0 0  4.800000000000001e-06 0 0  4.900000000000001e-06 0 0  5e-06 0 0  5.1e-06 0 0  5.200000000000001e-06 0 0  5.300000000000001e-06 0 0  5.4e-06 0 0  5.500000000000001e-06 0 0  5.600000000000001e-06 0 0  5.7e-06 0 0  5.8e-06 0 0  5.9e-06 0 0  6e-06 0 0  6.100000000000001e-06 0 0  6.2e-06 0 0  6.300000000000001e-06 0 0  6.400000000000001e-06 0 0  6.5e-06 0 0  6.600000000000001e-06 0 0  6.7e-06 0 0  6.8e-06 0 0  6.900000000000001e-06 0 0  7.000000000000001e-06 0 0  7.1e-06 0 0  7.200000000000001e-06 0 0  7.3e-06 0 0  7.400000000000001e-06 0 0  7.5e-06 0 0  7.6e-06 0 0  7.700000000000001e-06 0 0  7.800000000000002e-06 0 0  7.900000000000001e-06 0 0  8e-06 0 0  8.1e-06 0 0  8.200000000000001e-06 0 0  8.300000000000002e-06 0 0  8.400000000000001e-06 0 0  8.5e-06 0 0  8.600000000000001e-06 0 0  8.700000000000001e-06 0 0  8.8e-06 0 0  8.900000000000001e-06 0 0  9e-06 0 0  9.100000000000001e-06 0 0  9.2e-06 0 0  9.300000000000001e-06 0 0  9.400000000000001e-06 0 0  9.500000000000001e-06 0 0  9.600000000000001e-06 0 0  9.7e-06 0 0  9.800000000000001e-06 0 0  9.9e-06 0 0  1e-05 0 0  </DataArray>
</Points>
<Cells>
<DataArray  type="UInt32"  Name="connectivity"  format="ascii">0 1  1 2  2 3  3 4  4 5  5 6  6 7  7 8  8 9  9 10  10 11  11 12  12 13  13 14  14 15  15 16  16 17  17 18  18 19  19 20  20 21  21 22  22 23  23 24  24 25  25 26  26 27  27 28  28 29  29 30  30 31  31 32  32 33  33 34  34 35  35 36  36 37  37 38  38 39  39 40  40 41  41 42  42 43  43 44  44 45  45 46  46 47  47 48  48 49  49 50  50 51  51 52  52 53  53 54  54 55  55 56  56 57  57 58  58 59  59 60  60 61  61 62  62 63  63 64  64 65  65 66  66 67  67 68  68 69  69 70  70 71  71 72  72 73  73 74  74 75  75 76  76 77  77 78  78 79  79 80  80 81  81 82  82 83  83 84  84 85  85 86  86 87  87 88  88 89  89 90  90 91  91 92  92 93  93 94  94 95  95 96  96 97  97 98  98 99  99 100  </DataArray>
<DataArray  type="UInt32"  Name="offsets"  format="ascii">2 4 6 8 10 12 14 16 18 20 22 24 26 28 30 32 34 36 38 40 42 44 46 48 50 52 54 56 58 60 62 64 66 68 70 72 74 76 78 80 82 84 86 88 90 92 94 96 98 100 102 104 106 108 110 112 114 116 118 120 122 124 126 128 130 132 134 136 138 140 142 144 146 148 150 152 154 156 158 160 162 164 166 168 170 172 174 176 178 180 182 184 186 188 190 192 194 196 198 200 </DataArray>
<DataArray  type="UInt8"  Name="types"  format="ascii">3 3 3 3 3 3 3 3 3 3 3 3 3 3 3 3 3 3 3 3 3 3 3 3 3 3 3 3 3 3 3 3 3 3 3 3 3 3 3 3 3 3 3 3 3 3 3 3 3 3 3 3 3 3 3 3 3 3 3 3 3 3 3 3 3 3 3 3 3 3 3 3 3 3 3 3 3 3 3 3 3 3 3 3 3 3 3 3 3 3 3 3 3 3 3 3 3 3 3 3 </DataArray>
</Cells>
<PointData  Scalars="f_44"> 
<DataArray  type="Float64"  Name="f_44"  format="ascii">0.0000000000000000e+00  4.5603027692700938e-04  3.8757528661342042e-04  4.0285560673420951e-04  3.9913981456762485e-04  4.0009684196070381e-04  3.9985466097478797e-04  3.9992220671679530e-04  3.9990673377718588e-04  3.9991236893085921e-04  3.9991183893321578e-04  3.9991260680420247e-04  3.9991280684785094e-04  3.9991301649842557e-04  3.9991313158617393e-04  3.9991321229694034e-04  3.9991326339273059e-04  3.9991329713795959e-04  3.9991331904984108e-04  3.9991333338179505e-04  3.9991334272991688e-04  3.9991334883505189e-04  3.9991335282047363e-04  3.9991335542274511e-04  3.9991335712177682e-04  3.9991335823112478e-04  3.9991335895544198e-04  3.9991335942836636e-04  3.9991335973714812e-04  3.9991335993875681e-04  3.9991336007039034e-04  3.9991336015633504e-04  3.9991336021244890e-04  3.9991336024908588e-04  3.9991336027300631e-04  3.9991336028862370e-04  3.9991336029882024e-04  3.9991336030547708e-04  3.9991336030982381e-04  3.9991336031266106e-04  3.9991336031451369e-04  3.9991336031572290e-04  3.9991336031651209e-04  3.9991336031702692e-04  3.9991336031736200e-04  3.9991336031757971e-04  3.9991336031772016e-04  3.9991336031780923e-04  3.9991336031786290e-04  3.9991336031789174e-04  3.9991336031790079e-04  3.9991336031789179e-04  3.9991336031786322e-04  3.9991336031780891e-04  3.9991336031772038e-04  3.9991336031757981e-04  3.9991336031736205e-04  3.9991336031702687e-04  3.9991336031651193e-04  3.9991336031572290e-04  3.9991336031451353e-04  3.9991336031266128e-04  3.9991336030982359e-04  3.9991336030547746e-04  3.9991336029882013e-04  3.9991336028862359e-04  3.9991336027300642e-04  3.9991336024908583e-04  3.9991336021244917e-04  3.9991336015633499e-04  3.9991336007039034e-04  3.9991335993875708e-04  3.9991335973714795e-04  3.9991335942836631e-04  3.9991335895544220e-04  3.9991335823112505e-04  3.9991335712177682e-04  3.9991335542274506e-04  3.9991335282047363e-04  3.9991334883505162e-04  3.9991334272991704e-04  3.9991333338179521e-04  3.9991331904984102e-04  3.9991329713795964e-04  3.9991326339273065e-04  3.9991321229694018e-04  3.9991313158617414e-04  3.9991301649842546e-04  3.9991280684785073e-04  3.9991260680420252e-04  3.9991183893321578e-04  3.9991236893085905e-04  3.9990673377718588e-04  3.9992220671679509e-04  3.9985466097478797e-04  4.0009684196070397e-04  3.9913981456762512e-04  4.0285560673420935e-04  3.8757528661342020e-04  4.5603027692701009e-04  0.0000000000000000e+00  </DataArray> 
</PointData> 
</Piece>
</UnstructuredGrid>
</VTKFile>