<?xml version="1.0"?>
<VTKFile type="UnstructuredGrid"  version="0.1"  >
<UnstructuredGrid>
<Piece  NumberOfPoints="101" NumberOfCells="100">
<Points>
<DataArray  type="Float64"  NumberOfComponents="3"  format="ascii">0 0 0  1e-07 0 0  2e-07 0 0  3e-07 0 0  4e-07 0 0  5e-07 0 0  6.000000000000001e-07 0 0  7.000000000000001e-07 0 0  8.000000000000001e-07 0 0  9.000000000000001e-07 0 0  1e-06 0 0  1.1e-06 0 0  1.2e-06 0 0  1.3e-06 0 0  1.4e-06 0 0  1.5e-06 0 0  1.6e-06 0 0  1.7e-06 0 0  1.8e-06 0 0  1.9e-06 0 0  2e-06 0 0  2.1e-06 0 0  2.2e-06 0 0  2.3e-06 0 0  2.4e-06 0 0  2.5e-06 0 0  2.600000000000001e-06 0 0  2.7e-06 0 0  2.8e-06 0 0  2.9e-06 0 0  3e-06 0 0  3.1e-06 0 0  3.2e-06 0 0  3.300000000000001e-06 0 0  3.4e-06 0 0  3.5e-06 0 0  3.6e-06 0 0  3.700000000000001e-06 0 0  3.8e-06 0 0  3.900000000000001e-06 0 0  4e-06 0 0  4.100000000000001e-06 0 0  4.2e-06 0 0  4.3e-06 0 0  4.4e-06 0 0  4.5e-06 0 0  4.6e-06 0 0  4.700000000000001e-06 0 0  4.800000000000001e-06 0 0  4.900000000000001e-06 0 0  5e-06 0 0  5.1e-06 0 0  5.200000000000001e-06 0 0  5.300000000000001e-06 0 0  5.4e-06 0 0  5.500000000000001e-06 0 0  5.600000000000001e-06 0 0  5.7e-06 0 0  5.8e-06 0 0  5.9e-06 0 0  6e-06 0 0  6.100000000000001e-06 0 0  6.2e-06 0 0  6.300000000000001e-06 0 0  6.400000000000001e-06 0 0  6.5e-06 0 0  6.600000000000001e-06 0 0  6.7e-06 0 0  6.8e-06 0 0  6.900000000000001e-06 0 0  7.000000000000001e-06 0 0  7.1e-06 0 0  7.200000000000001e-06 0 0  7.3e-06 0 0  7.400000000000001e-06 0 0  7.5e-06 0 0  7.6e-06 0 0  7.700000000000001e-06 0 0  7.800000000000002e-06 0 0  7.900000000000001e-06 0 0  8e-06 0 0  8.1e-06 0 0  8.200000000000001e-06 0 0  8.300000000000002e-06 0 0  8.400000000000001e-06 0 0  8.5e-06 0 0  8.600000000000001e-06 0 0  8.700000000000001e-06 0 0  8.8e-06 0 0  8.900000000000001e-06 0 0  9e-06 0 0  9.100000000000001e-06 0 0  9.2e-06 0 0  9.300000000000001e-06 0 0  9.400000000000001e-06 0 0  9.500000000000001e-06 0 0  9.600000000000001e-06 0 0  9.7e-06 0 0  9.800000000000001e-06 0 0  9.9e-06 0 0  1e-05 0 0  </DataArray>
</Points>
<Cells>
<DataArray  type="UInt32"  Name="connectivity"  format="ascii">0 1  1 2  2 3  3 4  4 5  5 6  6 7  7 8  8 9  9 10  10 11  11 12  12 13  13 14  14 15  15 16  16 17  17 18  18 19  19 20  20 21  21 22  22 23  23 24  24 25  25 26  26 27  27 28  28 29  29 30  30 31  31 32  32 33  33 34  34 35  35 36  36 37  37 38  38 39  39 40  40 41  41 42  42 43  43 44  44 45  45 46  46 47  47 48  48 49  49 50  50 51  51 52  52 53  53 54  54 55  55 56  56 57  57 58  58 59  59 60  60 61  61 62  62 63  63 64  64 65  65 66  66 67  67 68  68 69  69 70  70 71  71 72  72 73  73 74  74 75  75 76  76 77  77 78  78 79  79 80  80 81  81 82  82 83  83 84  84 85  85 86  86 87  87 88  88 89  89 90  90 91  91 92  92 93  93 94  94 95  95 96  96 97  97 98  98 99  99 100  </DataArray>
<DataArray  type="UInt32"  Name="offsets"  format="ascii">2 4 6 8 10 12 14 16 18 20 22 24 26 28 30 32 34 36 38 40 42 44 46 48 50 52 54 56 58 60 62 64 66 68 70 72 74 76 78 80 82 84 86 88 90 92 94 96 98 100 102 104 106 108 110 112 114 116 118 120 122 124 126 128 130 132 134 136 138 140 142 144 146 148 150 152 154 156 158 160 162 164 166 168 170 172 174 176 178 180 182 184 186 188 190 192 194 196 198 200 </DataArray>
<DataArray  type="UInt8"  Name="types"  format="ascii">3 3 3 3 3 3 3 3 3 3 3 3 3 3 3 3 3 3 3 3 3 3 3 3 3 3 3 3 3 3 3 3 3 3 3 3 3 3 3 3 3 3 3 3 3 3 3 3 3 3 3 3 3 3 3 3 3 3 3 3 3 3 3 3 3 3 3 3 3 3 3 3 3 3 3 3 3 3 3 3 3 3 3 3 3 3 3 3 3 3 3 3 3 3 3 3 3 3 3 3 </DataArray>
</Cells>
<PointData  Scalars="f_38"> 
<DataArray  type="Float64"  Name="f_38"  format="ascii">0.0000000000000000e+00  2.3656276128141467e-04  3.9770566609444462e-04  5.0254639873863855e-04  5.7103522362898969e-04  6.1574336879201990e-04  6.4493235535887847e-04  6.6398842684844723e-04  6.7642929604061161e-04  6.8455135982776918e-04  6.8985387514004955e-04  6.9331563659145307e-04  6.9557565614278120e-04  6.9705111513161200e-04  6.9801437179187913e-04  6.9864323596435514e-04  6.9905379125763628e-04  6.9932182312962233e-04  6.9949680828632250e-04  6.9961104770218763e-04  6.9968562913653922e-04  6.9973431977683352e-04  6.9976610755968403e-04  6.9978686027784439e-04  6.9980040873172976e-04  6.9980925386714629e-04  6.9981502843161742e-04  6.9981879836765763e-04  6.9982125957798605e-04  6.9982286638409458e-04  6.9982391539068233e-04  6.9982460023672159e-04  6.9982504733980097e-04  6.9982533923189133e-04  6.9982552979414535e-04  6.9982565420296681e-04  6.9982573542331789e-04  6.9982578844788332e-04  6.9982582306461164e-04  6.9982584566349849e-04  6.9982586041613358e-04  6.9982587004574601e-04  6.9982587632989250e-04  6.9982588042858047e-04  6.9982588309839818e-04  6.9982588483217460e-04  6.9982588594995191e-04  6.9982588665806376e-04  6.9982588708722242e-04  6.9982588731664784e-04  6.9982588738869004e-04  6.9982588731664741e-04  6.9982588708722177e-04  6.9982588665806257e-04  6.9982588594995029e-04  6.9982588483217232e-04  6.9982588309839546e-04  6.9982588042857700e-04  6.9982587632988816e-04  6.9982587004574102e-04  6.9982586041612762e-04  6.9982584566349155e-04  6.9982582306460405e-04  6.9982578844787519e-04  6.9982573542330922e-04  6.9982565420295749e-04  6.9982552979413527e-04  6.9982533923188038e-04  6.9982504733978948e-04  6.9982460023670944e-04  6.9982391539066943e-04  6.9982286638408102e-04  6.9982125957797174e-04  6.9981879836764234e-04  6.9981502843160137e-04  6.9980925386712960e-04  6.9980040873171242e-04  6.9978686027782650e-04  6.9976610755966560e-04  6.9973431977681476e-04  6.9968562913652014e-04  6.9961104770216833e-04  6.9949680828630310e-04  6.9932182312960303e-04  6.9905379125761709e-04  6.9864323596433627e-04  6.9801437179186048e-04  6.9705111513159400e-04  6.9557565614276396e-04  6.9331563659143669e-04  6.8985387514003415e-04  6.8455135982775465e-04  6.7642929604059849e-04  6.6398842684843519e-04  6.4493235535886784e-04  6.1574336879201112e-04  5.7103522362898231e-04  5.0254639873863356e-04  3.9770566609444061e-04  2.3656276128141432e-04  0.0000000000000000e+00  </DataArray> 
</PointData> 
</Piece>
</UnstructuredGrid>
</VTKFile>