<?xml version="1.0"?>
<VTKFile type="UnstructuredGrid"  version="0.1"  >
<UnstructuredGrid>
<Piece  NumberOfPoints="101" NumberOfCells="100">
<Points>
<DataArray  type="Float64"  NumberOfComponents="3"  format="ascii">0 0 0  1e-07 0 0  2e-07 0 0  3e-07 0 0  4e-07 0 0  5e-07 0 0  6.000000000000001e-07 0 0  7.000000000000001e-07 0 0  8.000000000000001e-07 0 0  9.000000000000001e-07 0 0  1e-06 0 0  1.1e-06 0 0  1.2e-06 0 0  1.3e-06 0 0  1.4e-06 0 0  1.5e-06 0 0  1.6e-06 0 0  1.7e-06 0 0  1.8e-06 0 0  1.9e-06 0 0  2e-06 0 0  2.1e-06 0 0  2.2e-06 0 0  2.3e-06 0 0  2.4e-06 0 0  2.5e-06 0 0  2.600000000000001e-06 0 0  2.7e-06 0 0  2.8e-06 0 0  2.9e-06 0 0  3e-06 0 0  3.1e-06 0 0  3.2e-06 0 0  3.300000000000001e-06 0 0  3.4e-06 0 0  3.5e-06 0 0  3.6e-06 0 0  3.700000000000001e-06 0 0  3.8e-06 0 0  3.900000000000001e-06 0 0  4e-06 0 0  4.100000000000001e-06 0 0  4.2e-06 0 0  4.3e-06 0 0  4.4e-06 0 0  4.5e-06 0 0  4.6e-06 0 0  4.700000000000001e-06 0 0  4.800000000000001e-06 0 0  4.900000000000001e-06 0 0  5e-06 0 0  5.1e-06 0 0  5.200000000000001e-06 0 0  5.300000000000001e-06 0 0  5.4e-06 0 0  5.500000000000001e-06 0 0  5.600000000000001e-06 0 0  5.7e-06 0 0  5.8e-06 0 0  5.9e-06 0 0  6e-06 0 0  6.100000000000001e-06 0 0  6.2e-06 0 0  6.300000000000001e-06 0 0  6.400000000000001e-06 0 0  6.5e-06 0 0  6.600000000000001e-06 0 0  6.7e-06 0 0  6.8e-06 0 0  6.900000000000001e-06 0 0  7.000000000000001e-06 0 0  7.1e-06 0 0  7.200000000000001e-06 0 0  7.3e-06 0 0  7.400000000000001e-06 0 0  7.5e-06 0 0  7.6e-06 0 0  7.700000000000001e-06 0 0  7.800000000000002e-06 0 0  7.900000000000001e-06 0 0  8e-06 0 0  8.1e-06 0 0  8.200000000000001e-06 0 0  8.300000000000002e-06 0 0  8.400000000000001e-06 0 0  8.5e-06 0 0  8.600000000000001e-06 0 0  8.700000000000001e-06 0 0  8.8e-06 0 0  8.900000000000001e-06 0 0  9e-06 0 0  9.100000000000001e-06 0 0  9.2e-06 0 0  9.300000000000001e-06 0 0  9.400000000000001e-06 0 0  9.500000000000001e-06 0 0  9.600000000000001e-06 0 0  9.7e-06 0 0  9.800000000000001e-06 0 0  9.9e-06 0 0  1e-05 0 0  </DataArray>
</Points>
<Cells>
<DataArray  type="UInt32"  Name="connectivity"  format="ascii">0 1  1 2  2 3  3 4  4 5  5 6  6 7  7 8  8 9  9 10  10 11  11 12  12 13  13 14  14 15  15 16  16 17  17 18  18 19  19 20  20 21  21 22  22 23  23 24  24 25  25 26  26 27  27 28  28 29  29 30  30 31  31 32  32 33  33 34  34 35  35 36  36 37  37 38  38 39  39 40  40 41  41 42  42 43  43 44  44 45  45 46  46 47  47 48  48 49  49 50  50 51  51 52  52 53  53 54  54 55  55 56  56 57  57 58  58 59  59 60  60 61  61 62  62 63  63 64  64 65  65 66  66 67  67 68  68 69  69 70  70 71  71 72  72 73  73 74  74 75  75 76  76 77  77 78  78 79  79 80  80 81  81 82  82 83  83 84  84 85  85 86  86 87  87 88  88 89  89 90  90 91  91 92  92 93  93 94  94 95  95 96  96 97  97 98  98 99  99 100  </DataArray>
<DataArray  type="UInt32"  Name="offsets"  format="ascii">2 4 6 8 10 12 14 16 18 20 22 24 26 28 30 32 34 36 38 40 42 44 46 48 50 52 54 56 58 60 62 64 66 68 70 72 74 76 78 80 82 84 86 88 90 92 94 96 98 100 102 104 106 108 110 112 114 116 118 120 122 124 126 128 130 132 134 136 138 140 142 144 146 148 150 152 154 156 158 160 162 164 166 168 170 172 174 176 178 180 182 184 186 188 190 192 194 196 198 200 </DataArray>
<DataArray  type="UInt8"  Name="types"  format="ascii">3 3 3 3 3 3 3 3 3 3 3 3 3 3 3 3 3 3 3 3 3 3 3 3 3 3 3 3 3 3 3 3 3 3 3 3 3 3 3 3 3 3 3 3 3 3 3 3 3 3 3 3 3 3 3 3 3 3 3 3 3 3 3 3 3 3 3 3 3 3 3 3 3 3 3 3 3 3 3 3 3 3 3 3 3 3 3 3 3 3 3 3 3 3 3 3 3 3 3 3 </DataArray>
</Cells>
<PointData  Scalars="f_34"> 
<DataArray  type="Float64"  Name="f_34"  format="ascii">0.0000000000000000e+00  4.2599986708285600e-77  8.5157932372848827e-77  1.2763183743940184e-76  1.6997978529158068e-76  2.1215998361758490e-76  2.5413080565414387e-76  2.9585083126710627e-76  3.3727888782811176e-76  3.7837409084700464e-76  4.1909588431988916e-76  4.5940408075300942e-76  4.9925890082295316e-76  5.3862101263404228e-76  5.7745157053416431e-76  6.1571225345074248e-76  6.5336530270900596e-76  6.9037355929524457e-76  7.2670050052826904e-76  7.6231027610288684e-76  7.9716774346982605e-76  8.3123850251718838e-76  8.6448892951920648e-76  8.9688621031880271e-76  9.2839837271119858e-76  9.5899431799662187e-76  9.8864385167096940e-76  1.0173177132241361e-75  1.0449876050166067e-75  1.0716262202058078e-75  1.0972072696946675e-75  1.1217055080757777e-75  1.1450967585455639e-75  1.1673579367638728e-75  1.1884670736354274e-75  1.2084033369906725e-75  1.2271470521446097e-75  1.2446797213133390e-75  1.2609840418691358e-75  1.2760439234160561e-75  1.2898445036692145e-75  1.3023721631220654e-75  1.3136145384872111e-75  1.3235605348974757e-75  1.3322003368551965e-75  1.3395254179189373e-75  1.3455285491180559e-75  1.3502038060868256e-75  1.3535465749110685e-75  1.3555535566815324e-75  1.3562227707495159e-75  1.3555535566815292e-75  1.3535465749110626e-75  1.3502038060868171e-75  1.3455285491180451e-75  1.3395254179189241e-75  1.3322003368551808e-75  1.3235605348974573e-75  1.3136145384871898e-75  1.3023721631220408e-75  1.2898445036691870e-75  1.2760439234160256e-75  1.2609840418691029e-75  1.2446797213133036e-75  1.2271470521445721e-75  1.2084033369906332e-75  1.1884670736353869e-75  1.1673579367638319e-75  1.1450967585455226e-75  1.1217055080757359e-75  1.0972072696946260e-75  1.0716262202057667e-75  1.0449876050165657e-75  1.0173177132240958e-75  9.8864385167092952e-76  9.5899431799658333e-76  9.2839837271116139e-76  8.9688621031876712e-76  8.6448892951917236e-76  8.3123850251715610e-76  7.9716774346979623e-76  7.6231027610285910e-76  7.2670050052824315e-76  6.9037355929522027e-76  6.5336530270898350e-76  6.1571225345072210e-76  5.7745157053414553e-76  5.3862101263402454e-76  4.9925890082293745e-76  4.5940408075299493e-76  4.1909588431987682e-76  3.7837409084699359e-76  3.3727888782810268e-76  2.9585083126709829e-76  2.5413080565413685e-76  2.1215998361757947e-76  1.6997978529157608e-76  1.2763183743939879e-76  8.5157932372846572e-77  4.2599986708284818e-77  0.0000000000000000e+00  </DataArray> 
</PointData> 
</Piece>
</UnstructuredGrid>
</VTKFile>