<?xml version="1.0"?>
<VTKFile type="UnstructuredGrid"  version="0.1"  >
<UnstructuredGrid>
<Piece  NumberOfPoints="101" NumberOfCells="100">
<Points>
<DataArray  type="Float64"  NumberOfComponents="3"  format="ascii">0 0 0  1e-07 0 0  2e-07 0 0  3e-07 0 0  4e-07 0 0  5e-07 0 0  6.000000000000001e-07 0 0  7.000000000000001e-07 0 0  8.000000000000001e-07 0 0  9.000000000000001e-07 0 0  1e-06 0 0  1.1e-06 0 0  1.2e-06 0 0  1.3e-06 0 0  1.4e-06 0 0  1.5e-06 0 0  1.6e-06 0 0  1.7e-06 0 0  1.8e-06 0 0  1.9e-06 0 0  2e-06 0 0  2.1e-06 0 0  2.2e-06 0 0  2.3e-06 0 0  2.4e-06 0 0  2.5e-06 0 0  2.600000000000001e-06 0 0  2.7e-06 0 0  2.8e-06 0 0  2.9e-06 0 0  3e-06 0 0  3.1e-06 0 0  3.2e-06 0 0  3.300000000000001e-06 0 0  3.4e-06 0 0  3.5e-06 0 0  3.6e-06 0 0  3.700000000000001e-06 0 0  3.8e-06 0 0  3.900000000000001e-06 0 0  4e-06 0 0  4.100000000000001e-06 0 0  4.2e-06 0 0  4.3e-06 0 0  4.4e-06 0 0  4.5e-06 0 0  4.6e-06 0 0  4.700000000000001e-06 0 0  4.800000000000001e-06 0 0  4.900000000000001e-06 0 0  5e-06 0 0  5.1e-06 0 0  5.200000000000001e-06 0 0  5.300000000000001e-06 0 0  5.4e-06 0 0  5.500000000000001e-06 0 0  5.600000000000001e-06 0 0  5.7e-06 0 0  5.8e-06 0 0  5.9e-06 0 0  6e-06 0 0  6.100000000000001e-06 0 0  6.2e-06 0 0  6.300000000000001e-06 0 0  6.400000000000001e-06 0 0  6.5e-06 0 0  6.600000000000001e-06 0 0  6.7e-06 0 0  6.8e-06 0 0  6.900000000000001e-06 0 0  7.000000000000001e-06 0 0  7.1e-06 0 0  7.200000000000001e-06 0 0  7.3e-06 0 0  7.400000000000001e-06 0 0  7.5e-06 0 0  7.6e-06 0 0  7.700000000000001e-06 0 0  7.800000000000002e-06 0 0  7.900000000000001e-06 0 0  8e-06 0 0  8.1e-06 0 0  8.200000000000001e-06 0 0  8.300000000000002e-06 0 0  8.400000000000001e-06 0 0  8.5e-06 0 0  8.600000000000001e-06 0 0  8.700000000000001e-06 0 0  8.8e-06 0 0  8.900000000000001e-06 0 0  9e-06 0 0  9.100000000000001e-06 0 0  9.2e-06 0 0  9.300000000000001e-06 0 0  9.400000000000001e-06 0 0  9.500000000000001e-06 0 0  9.600000000000001e-06 0 0  9.7e-06 0 0  9.800000000000001e-06 0 0  9.9e-06 0 0  1e-05 0 0  </DataArray>
</Points>
<Cells>
<DataArray  type="UInt32"  Name="connectivity"  format="ascii">0 1  1 2  2 3  3 4  4 5  5 6  6 7  7 8  8 9  9 10  10 11  11 12  12 13  13 14  14 15  15 16  16 17  17 18  18 19  19 20  20 21  21 22  22 23  23 24  24 25  25 26  26 27  27 28  28 29  29 30  30 31  31 32  32 33  33 34  34 35  35 36  36 37  37 38  38 39  39 40  40 41  41 42  42 43  43 44  44 45  45 46  46 47  47 48  48 49  49 50  50 51  51 52  52 53  53 54  54 55  55 56  56 57  57 58  58 59  59 60  60 61  61 62  62 63  63 64  64 65  65 66  66 67  67 68  68 69  69 70  70 71  71 72  72 73  73 74  74 75  75 76  76 77  77 78  78 79  79 80  80 81  81 82  82 83  83 84  84 85  85 86  86 87  87 88  88 89  89 90  90 91  91 92  92 93  93 94  94 95  95 96  96 97  97 98  98 99  99 100  </DataArray>
<DataArray  type="UInt32"  Name="offsets"  format="ascii">2 4 6 8 10 12 14 16 18 20 22 24 26 28 30 32 34 36 38 40 42 44 46 48 50 52 54 56 58 60 62 64 66 68 70 72 74 76 78 80 82 84 86 88 90 92 94 96 98 100 102 104 106 108 110 112 114 116 118 120 122 124 126 128 130 132 134 136 138 140 142 144 146 148 150 152 154 156 158 160 162 164 166 168 170 172 174 176 178 180 182 184 186 188 190 192 194 196 198 200 </DataArray>
<DataArray  type="UInt8"  Name="types"  format="ascii">3 3 3 3 3 3 3 3 3 3 3 3 3 3 3 3 3 3 3 3 3 3 3 3 3 3 3 3 3 3 3 3 3 3 3 3 3 3 3 3 3 3 3 3 3 3 3 3 3 3 3 3 3 3 3 3 3 3 3 3 3 3 3 3 3 3 3 3 3 3 3 3 3 3 3 3 3 3 3 3 3 3 3 3 3 3 3 3 3 3 3 3 3 3 3 3 3 3 3 3 </DataArray>
</Cells>
<PointData  Scalars="f_34"> 
<DataArray  type="Float64"  Name="f_34"  format="ascii">0.0000000000000000e+00  6.7008739396893715e-78  1.3395134925806585e-77  2.0076176530966268e-77  2.6737405373716058e-77  3.3372247625408057e-77  3.9974155497774077e-77  4.6536613704802079e-77  5.3053145892536912e-77  5.9517321030459753e-77  6.5922759758138788e-77  7.2263140680887797e-77  7.8532206608219475e-77  8.4723770728937035e-77  9.0831722716769913e-77  9.6850034760528165e-77  1.0277276751282419e-76  1.0859407595149166e-76  1.1430821514791672e-76  1.1990954593658884e-76  1.2539254048027651e-76  1.3075178772533498e-76  1.3598199874176310e-76  1.4107801194273881e-76  1.4603479817848183e-76  1.5084746569941746e-76  1.5551126498374299e-76  1.6002159342463201e-76  1.6437399987245205e-76  1.6856418902751144e-76  1.7258802567900181e-76  1.7644153878595190e-76  1.8012092539616535e-76  1.8362255439927568e-76  1.8694297011021355e-76  1.9007889567955092e-76  1.9302723632735565e-76  1.9578508239736591e-76  1.9834971222846933e-76  2.0071859484065427e-76  2.0288939243278104e-76  2.0485996268970985e-76  2.0662836089650694e-76  2.0819284185764352e-76  2.0955186161929309e-76  2.1070407899302728e-76  2.1164835687940714e-76  2.1238376339016282e-76  2.1290957276785493e-76  2.1322526610210939e-76  2.1333053184171941e-76  2.1322526610210890e-76  2.1290957276785401e-76  2.1238376339016151e-76  2.1164835687940543e-76  2.1070407899302519e-76  2.0955186161929057e-76  2.0819284185764057e-76  2.0662836089650353e-76  2.0485996268970596e-76  2.0288939243277668e-76  2.0071859484064939e-76  1.9834971222846408e-76  1.9578508239736020e-76  1.9302723632734961e-76  1.9007889567954466e-76  1.8694297011020710e-76  1.8362255439926914e-76  1.8012092539615875e-76  1.7644153878594524e-76  1.7258802567899518e-76  1.6856418902750484e-76  1.6437399987244546e-76  1.6002159342462553e-76  1.5551126498373654e-76  1.5084746569941126e-76  1.4603479817847585e-76  1.4107801194273311e-76  1.3598199874175765e-76  1.3075178772532980e-76  1.2539254048027175e-76  1.1990954593658444e-76  1.1430821514791261e-76  1.0859407595148780e-76  1.0277276751282066e-76  9.6850034760524974e-77  9.0831722716766952e-77  8.4723770728934227e-77  7.8532206608216974e-77  7.2263140680885511e-77  6.5922759758136832e-77  5.9517321030458004e-77  5.3053145892535478e-77  4.6536613704800821e-77  3.9974155497772965e-77  3.3372247625407202e-77  2.6737405373715333e-77  2.0076176530965785e-77  1.3395134925806228e-77  6.7008739396892507e-78  0.0000000000000000e+00  </DataArray> 
</PointData> 
</Piece>
</UnstructuredGrid>
</VTKFile>