<?xml version="1.0"?>
<VTKFile type="UnstructuredGrid"  version="0.1"  >
<UnstructuredGrid>
<Piece  NumberOfPoints="101" NumberOfCells="100">
<Points>
<DataArray  type="Float64"  NumberOfComponents="3"  format="ascii">0 0 0  1e-07 0 0  2e-07 0 0  3e-07 0 0  4e-07 0 0  5e-07 0 0  6.000000000000001e-07 0 0  7.000000000000001e-07 0 0  8.000000000000001e-07 0 0  9.000000000000001e-07 0 0  1e-06 0 0  1.1e-06 0 0  1.2e-06 0 0  1.3e-06 0 0  1.4e-06 0 0  1.5e-06 0 0  1.6e-06 0 0  1.7e-06 0 0  1.8e-06 0 0  1.9e-06 0 0  2e-06 0 0  2.1e-06 0 0  2.2e-06 0 0  2.3e-06 0 0  2.4e-06 0 0  2.5e-06 0 0  2.600000000000001e-06 0 0  2.7e-06 0 0  2.8e-06 0 0  2.9e-06 0 0  3e-06 0 0  3.1e-06 0 0  3.2e-06 0 0  3.300000000000001e-06 0 0  3.4e-06 0 0  3.5e-06 0 0  3.6e-06 0 0  3.700000000000001e-06 0 0  3.8e-06 0 0  3.900000000000001e-06 0 0  4e-06 0 0  4.100000000000001e-06 0 0  4.2e-06 0 0  4.3e-06 0 0  4.4e-06 0 0  4.5e-06 0 0  4.6e-06 0 0  4.700000000000001e-06 0 0  4.800000000000001e-06 0 0  4.900000000000001e-06 0 0  5e-06 0 0  5.1e-06 0 0  5.200000000000001e-06 0 0  5.300000000000001e-06 0 0  5.4e-06 0 0  5.500000000000001e-06 0 0  5.600000000000001e-06 0 0  5.7e-06 0 0  5.8e-06 0 0  5.9e-06 0 0  6e-06 0 0  6.100000000000001e-06 0 0  6.2e-06 0 0  6.300000000000001e-06 0 0  6.400000000000001e-06 0 0  6.5e-06 0 0  6.600000000000001e-06 0 0  6.7e-06 0 0  6.8e-06 0 0  6.900000000000001e-06 0 0  7.000000000000001e-06 0 0  7.1e-06 0 0  7.200000000000001e-06 0 0  7.3e-06 0 0  7.400000000000001e-06 0 0  7.5e-06 0 0  7.6e-06 0 0  7.700000000000001e-06 0 0  7.800000000000002e-06 0 0  7.900000000000001e-06 0 0  8e-06 0 0  8.1e-06 0 0  8.200000000000001e-06 0 0  8.300000000000002e-06 0 0  8.400000000000001e-06 0 0  8.5e-06 0 0  8.600000000000001e-06 0 0  8.700000000000001e-06 0 0  8.8e-06 0 0  8.900000000000001e-06 0 0  9e-06 0 0  9.100000000000001e-06 0 0  9.2e-06 0 0  9.300000000000001e-06 0 0  9.400000000000001e-06 0 0  9.500000000000001e-06 0 0  9.600000000000001e-06 0 0  9.7e-06 0 0  9.800000000000001e-06 0 0  9.9e-06 0 0  1e-05 0 0  </DataArray>
</Points>
<Cells>
<DataArray  type="UInt32"  Name="connectivity"  format="ascii">0 1  1 2  2 3  3 4  4 5  5 6  6 7  7 8  8 9  9 10  10 11  11 12  12 13  13 14  14 15  15 16  16 17  17 18  18 19  19 20  20 21  21 22  22 23  23 24  24 25  25 26  26 27  27 28  28 29  29 30  30 31  31 32  32 33  33 34  34 35  35 36  36 37  37 38  38 39  39 40  40 41  41 42  42 43  43 44  44 45  45 46  46 47  47 48  48 49  49 50  50 51  51 52  52 53  53 54  54 55  55 56  56 57  57 58  58 59  59 60  60 61  61 62  62 63  63 64  64 65  65 66  66 67  67 68  68 69  69 70  70 71  71 72  72 73  73 74  74 75  75 76  76 77  77 78  78 79  79 80  80 81  81 82  82 83  83 84  84 85  85 86  86 87  87 88  88 89  89 90  90 91  91 92  92 93  93 94  94 95  95 96  96 97  97 98  98 99  99 100  </DataArray>
<DataArray  type="UInt32"  Name="offsets"  format="ascii">2 4 6 8 10 12 14 16 18 20 22 24 26 28 30 32 34 36 38 40 42 44 46 48 50 52 54 56 58 60 62 64 66 68 70 72 74 76 78 80 82 84 86 88 90 92 94 96 98 100 102 104 106 108 110 112 114 116 118 120 122 124 126 128 130 132 134 136 138 140 142 144 146 148 150 152 154 156 158 160 162 164 166 168 170 172 174 176 178 180 182 184 186 188 190 192 194 196 198 200 </DataArray>
<DataArray  type="UInt8"  Name="types"  format="ascii">3 3 3 3 3 3 3 3 3 3 3 3 3 3 3 3 3 3 3 3 3 3 3 3 3 3 3 3 3 3 3 3 3 3 3 3 3 3 3 3 3 3 3 3 3 3 3 3 3 3 3 3 3 3 3 3 3 3 3 3 3 3 3 3 3 3 3 3 3 3 3 3 3 3 3 3 3 3 3 3 3 3 3 3 3 3 3 3 3 3 3 3 3 3 3 3 3 3 3 3 </DataArray>
</Cells>
<PointData  Scalars="f_44"> 
<DataArray  type="Float64"  Name="f_44"  format="ascii">0.0000000000000000e+00  4.5964761894459614e-04  3.8548793599278800e-04  4.0368167934365417e-04  3.9904376864111871e-04  4.0024986552945896e-04  3.9993268991355790e-04  4.0001670617901452e-04  3.9999437845969314e-04  4.0000034192729319e-04  3.9999875537790442e-04  3.9999918373440421e-04  3.9999907181722340e-04  3.9999910358772700e-04  3.9999909632975987e-04  3.9999909918879786e-04  3.9999909915927156e-04  3.9999909983769503e-04  3.9999910034846446e-04  3.9999910099958202e-04  3.9999910177426290e-04  3.9999910273809543e-04  3.9999910393009170e-04  3.9999910538912473e-04  3.9999910714134268e-04  3.9999910919551900e-04  3.9999911153445957e-04  3.9999911410701225e-04  3.9999911682163147e-04  3.9999911954414255e-04  3.9999912210217728e-04  3.9999912429829020e-04  3.9999912593216579e-04  3.9999912682969096e-04  3.9999912687320829e-04  3.9999912602443091e-04  3.9999912433176879e-04  3.9999912191869872e-04  3.9999911895707927e-04  3.9999911563390908e-04  3.9999911211992554e-04  3.9999910854497325e-04  3.9999910498232362e-04  3.9999910143750727e-04  3.9999909785126832e-04  3.9999909406497749e-04  3.9999908993271362e-04  3.9999908483804978e-04  3.9999907947721518e-04  3.9999906796844462e-04  3.9999907514372008e-04  3.9999903002077558e-04  3.9999903802418211e-04  3.9999889824155420e-04  3.9999924384600779e-04  3.9999616818474842e-04  3.9999621301851430e-04  3.9999691702747876e-04  3.9999567006590141e-04  3.9999221815991196e-04  3.9998937539884320e-04  3.9996428371046413e-04  3.9998244716113918e-04  3.9968033369132037e-04  4.0044610303705756e-04  3.9398867361533084e-04  4.3088956115640888e-04  4.0115137461495644e-04  4.0595695017055521e-04  4.0613452369365333e-04  4.0876025332171352e-04  4.1227632597952137e-04  4.1781109939522347e-04  4.2605659601326426e-04  4.3939745381205587e-04  4.5805693750440444e-04  5.0097064902790867e-04  5.2147396972363077e-04  8.4578022074563441e-04  1.1435031949431967e-04  9.2998239431101356e-03  -2.5152729351254344e-03  5.4839194904073371e-05  -2.5752466148914153e-04  -7.3555332158978799e-05  -6.4023636335191293e-05  -3.4498517784295048e-05  -2.3070636574292700e-05  -1.4261167643910751e-05  -9.1778960858573802e-06  -5.8290218957155310e-06  -3.7273420884387737e-06  -2.3758963947859354e-06  -1.5140578852721577e-06  -9.6194867937792295e-07  -6.0828859601551086e-07  -3.8052941067637864e-07  -2.3199878855891462e-07  -1.3199103254464186e-07  -5.9705001216084386e-08  0.0000000000000000e+00  </DataArray> 
</PointData> 
</Piece>
</UnstructuredGrid>
</VTKFile>