<?xml version="1.0"?>
<VTKFile type="UnstructuredGrid"  version="0.1"  >
<UnstructuredGrid>
<Piece  NumberOfPoints="101" NumberOfCells="100">
<Points>
<DataArray  type="Float64"  NumberOfComponents="3"  format="ascii">0 0 0  1e-07 0 0  2e-07 0 0  3e-07 0 0  4e-07 0 0  5e-07 0 0  6.000000000000001e-07 0 0  7.000000000000001e-07 0 0  8.000000000000001e-07 0 0  9.000000000000001e-07 0 0  1e-06 0 0  1.1e-06 0 0  1.2e-06 0 0  1.3e-06 0 0  1.4e-06 0 0  1.5e-06 0 0  1.6e-06 0 0  1.7e-06 0 0  1.8e-06 0 0  1.9e-06 0 0  2e-06 0 0  2.1e-06 0 0  2.2e-06 0 0  2.3e-06 0 0  2.4e-06 0 0  2.5e-06 0 0  2.600000000000001e-06 0 0  2.7e-06 0 0  2.8e-06 0 0  2.9e-06 0 0  3e-06 0 0  3.1e-06 0 0  3.2e-06 0 0  3.300000000000001e-06 0 0  3.4e-06 0 0  3.5e-06 0 0  3.6e-06 0 0  3.700000000000001e-06 0 0  3.8e-06 0 0  3.900000000000001e-06 0 0  4e-06 0 0  4.100000000000001e-06 0 0  4.2e-06 0 0  4.3e-06 0 0  4.4e-06 0 0  4.5e-06 0 0  4.6e-06 0 0  4.700000000000001e-06 0 0  4.800000000000001e-06 0 0  4.900000000000001e-06 0 0  5e-06 0 0  5.1e-06 0 0  5.200000000000001e-06 0 0  5.300000000000001e-06 0 0  5.4e-06 0 0  5.500000000000001e-06 0 0  5.600000000000001e-06 0 0  5.7e-06 0 0  5.8e-06 0 0  5.9e-06 0 0  6e-06 0 0  6.100000000000001e-06 0 0  6.2e-06 0 0  6.300000000000001e-06 0 0  6.400000000000001e-06 0 0  6.5e-06 0 0  6.600000000000001e-06 0 0  6.7e-06 0 0  6.8e-06 0 0  6.900000000000001e-06 0 0  7.000000000000001e-06 0 0  7.1e-06 0 0  7.200000000000001e-06 0 0  7.3e-06 0 0  7.400000000000001e-06 0 0  7.5e-06 0 0  7.6e-06 0 0  7.700000000000001e-06 0 0  7.800000000000002e-06 0 0  7.900000000000001e-06 0 0  8e-06 0 0  8.1e-06 0 0  8.200000000000001e-06 0 0  8.300000000000002e-06 0 0  8.400000000000001e-06 0 0  8.5e-06 0 0  8.600000000000001e-06 0 0  8.700000000000001e-06 0 0  8.8e-06 0 0  8.900000000000001e-06 0 0  9e-06 0 0  9.100000000000001e-06 0 0  9.2e-06 0 0  9.300000000000001e-06 0 0  9.400000000000001e-06 0 0  9.500000000000001e-06 0 0  9.600000000000001e-06 0 0  9.7e-06 0 0  9.800000000000001e-06 0 0  9.9e-06 0 0  1e-05 0 0  </DataArray>
</Points>
<Cells>
<DataArray  type="UInt32"  Name="connectivity"  format="ascii">0 1  1 2  2 3  3 4  4 5  5 6  6 7  7 8  8 9  9 10  10 11  11 12  12 13  13 14  14 15  15 16  16 17  17 18  18 19  19 20  20 21  21 22  22 23  23 24  24 25  25 26  26 27  27 28  28 29  29 30  30 31  31 32  32 33  33 34  34 35  35 36  36 37  37 38  38 39  39 40  40 41  41 42  42 43  43 44  44 45  45 46  46 47  47 48  48 49  49 50  50 51  51 52  52 53  53 54  54 55  55 56  56 57  57 58  58 59  59 60  60 61  61 62  62 63  63 64  64 65  65 66  66 67  67 68  68 69  69 70  70 71  71 72  72 73  73 74  74 75  75 76  76 77  77 78  78 79  79 80  80 81  81 82  82 83  83 84  84 85  85 86  86 87  87 88  88 89  89 90  90 91  91 92  92 93  93 94  94 95  95 96  96 97  97 98  98 99  99 100  </DataArray>
<DataArray  type="UInt32"  Name="offsets"  format="ascii">2 4 6 8 10 12 14 16 18 20 22 24 26 28 30 32 34 36 38 40 42 44 46 48 50 52 54 56 58 60 62 64 66 68 70 72 74 76 78 80 82 84 86 88 90 92 94 96 98 100 102 104 106 108 110 112 114 116 118 120 122 124 126 128 130 132 134 136 138 140 142 144 146 148 150 152 154 156 158 160 162 164 166 168 170 172 174 176 178 180 182 184 186 188 190 192 194 196 198 200 </DataArray>
<DataArray  type="UInt8"  Name="types"  format="ascii">3 3 3 3 3 3 3 3 3 3 3 3 3 3 3 3 3 3 3 3 3 3 3 3 3 3 3 3 3 3 3 3 3 3 3 3 3 3 3 3 3 3 3 3 3 3 3 3 3 3 3 3 3 3 3 3 3 3 3 3 3 3 3 3 3 3 3 3 3 3 3 3 3 3 3 3 3 3 3 3 3 3 3 3 3 3 3 3 3 3 3 3 3 3 3 3 3 3 3 3 </DataArray>
</Cells>
<PointData  Scalars="f_41"> 
<DataArray  type="Float64"  Name="f_41"  format="ascii">0.0000000000000000e+00  1.1352437016345924e-03  9.7272664389784350e-04  1.0061028444178332e-03  9.9856671583903756e-04  1.0003461918343987e-03  9.9991483061218989e-04  1.0000212265164506e-03  9.9999465764936154e-04  1.0000013542164510e-03  9.9999965417698310e-04  1.0000000883206212e-03  9.9999997695577160e-04  1.0000000056672822e-03  9.9999999826478995e-04  1.0000000002005774e-03  9.9999999971179371e-04  9.9999999985172778e-04  9.9999999982627896e-04  9.9999999984275016e-04  9.9999999984717023e-04  9.9999999985382029e-04  9.9999999985908019e-04  9.9999999986400637e-04  9.9999999986840411e-04  9.9999999987239962e-04  9.9999999987601847e-04  9.9999999987930598e-04  9.9999999988229426e-04  9.9999999988501149e-04  9.9999999988748347e-04  9.9999999988973146e-04  9.9999999989177257e-04  9.9999999989362591e-04  9.9999999989530360e-04  9.9999999989681845e-04  9.9999999989818086e-04  9.9999999989940080e-04  9.9999999990048609e-04  9.9999999990144496e-04  9.9999999990228240e-04  9.9999999990300491e-04  9.9999999990361597e-04  9.9999999990412055e-04  9.9999999990452214e-04  9.9999999990482225e-04  9.9999999990502499e-04  9.9999999990512995e-04  9.9999999990514014e-04  9.9999999990505492e-04  9.9999999990487537e-04  9.9999999990460129e-04  9.9999999990423093e-04  9.9999999990376407e-04  9.9999999990319920e-04  9.9999999990253371e-04  9.9999999990176545e-04  9.9999999990089028e-04  9.9999999989990561e-04  9.9999999989880558e-04  9.9999999989758585e-04  9.9999999989624079e-04  9.9999999989476237e-04  9.9999999989314431e-04  9.9999999989137684e-04  9.9999999988945000e-04  9.9999999988735250e-04  9.9999999988507221e-04  9.9999999988259329e-04  9.9999999987989969e-04  9.9999999987697083e-04  9.9999999987378761e-04  9.9999999987032207e-04  9.9999999986654579e-04  9.9999999986242561e-04  9.9999999985792248e-04  9.9999999985298654e-04  9.9999999984758114e-04  9.9999999984157553e-04  9.9999999983514686e-04  9.9999999982724173e-04  9.9999999982141067e-04  9.9999999980353847e-04  9.9999999982693837e-04  9.9999999968644268e-04  1.0000000001687405e-03  9.9999999824547554e-04  1.0000000055953987e-03  9.9999997704663859e-04  1.0000000878615995e-03  9.9999965549225846e-04  1.0000013498136790e-03  9.9999467128465279e-04  1.0000211843271768e-03  9.9991495647735996e-04  1.0003458295117578e-03  9.9856770161142056e-04  1.0061003804460063e-03  9.7273194185718329e-04  1.1352356266272835e-03  0.0000000000000000e+00  </DataArray> 
</PointData> 
</Piece>
</UnstructuredGrid>
</VTKFile>