<?xml version="1.0"?>
<VTKFile type="UnstructuredGrid"  version="0.1"  >
<UnstructuredGrid>
<Piece  NumberOfPoints="101" NumberOfCells="100">
<Points>
<DataArray  type="Float64"  NumberOfComponents="3"  format="ascii">0 0 0  1e-07 0 0  2e-07 0 0  3e-07 0 0  4e-07 0 0  5e-07 0 0  6.000000000000001e-07 0 0  7.000000000000001e-07 0 0  8.000000000000001e-07 0 0  9.000000000000001e-07 0 0  1e-06 0 0  1.1e-06 0 0  1.2e-06 0 0  1.3e-06 0 0  1.4e-06 0 0  1.5e-06 0 0  1.6e-06 0 0  1.7e-06 0 0  1.8e-06 0 0  1.9e-06 0 0  2e-06 0 0  2.1e-06 0 0  2.2e-06 0 0  2.3e-06 0 0  2.4e-06 0 0  2.5e-06 0 0  2.600000000000001e-06 0 0  2.7e-06 0 0  2.8e-06 0 0  2.9e-06 0 0  3e-06 0 0  3.1e-06 0 0  3.2e-06 0 0  3.300000000000001e-06 0 0  3.4e-06 0 0  3.5e-06 0 0  3.6e-06 0 0  3.700000000000001e-06 0 0  3.8e-06 0 0  3.900000000000001e-06 0 0  4e-06 0 0  4.100000000000001e-06 0 0  4.2e-06 0 0  4.3e-06 0 0  4.4e-06 0 0  4.5e-06 0 0  4.6e-06 0 0  4.700000000000001e-06 0 0  4.800000000000001e-06 0 0  4.900000000000001e-06 0 0  5e-06 0 0  5.1e-06 0 0  5.200000000000001e-06 0 0  5.300000000000001e-06 0 0  5.4e-06 0 0  5.500000000000001e-06 0 0  5.600000000000001e-06 0 0  5.7e-06 0 0  5.8e-06 0 0  5.9e-06 0 0  6e-06 0 0  6.100000000000001e-06 0 0  6.2e-06 0 0  6.300000000000001e-06 0 0  6.400000000000001e-06 0 0  6.5e-06 0 0  6.600000000000001e-06 0 0  6.7e-06 0 0  6.8e-06 0 0  6.900000000000001e-06 0 0  7.000000000000001e-06 0 0  7.1e-06 0 0  7.200000000000001e-06 0 0  7.3e-06 0 0  7.400000000000001e-06 0 0  7.5e-06 0 0  7.6e-06 0 0  7.700000000000001e-06 0 0  7.800000000000002e-06 0 0  7.900000000000001e-06 0 0  8e-06 0 0  8.1e-06 0 0  8.200000000000001e-06 0 0  8.300000000000002e-06 0 0  8.400000000000001e-06 0 0  8.5e-06 0 0  8.600000000000001e-06 0 0  8.700000000000001e-06 0 0  8.8e-06 0 0  8.900000000000001e-06 0 0  9e-06 0 0  9.100000000000001e-06 0 0  9.2e-06 0 0  9.300000000000001e-06 0 0  9.400000000000001e-06 0 0  9.500000000000001e-06 0 0  9.600000000000001e-06 0 0  9.7e-06 0 0  9.800000000000001e-06 0 0  9.9e-06 0 0  1e-05 0 0  </DataArray>
</Points>
<Cells>
<DataArray  type="UInt32"  Name="connectivity"  format="ascii">0 1  1 2  2 3  3 4  4 5  5 6  6 7  7 8  8 9  9 10  10 11  11 12  12 13  13 14  14 15  15 16  16 17  17 18  18 19  19 20  20 21  21 22  22 23  23 24  24 25  25 26  26 27  27 28  28 29  29 30  30 31  31 32  32 33  33 34  34 35  35 36  36 37  37 38  38 39  39 40  40 41  41 42  42 43  43 44  44 45  45 46  46 47  47 48  48 49  49 50  50 51  51 52  52 53  53 54  54 55  55 56  56 57  57 58  58 59  59 60  60 61  61 62  62 63  63 64  64 65  65 66  66 67  67 68  68 69  69 70  70 71  71 72  72 73  73 74  74 75  75 76  76 77  77 78  78 79  79 80  80 81  81 82  82 83  83 84  84 85  85 86  86 87  87 88  88 89  89 90  90 91  91 92  92 93  93 94  94 95  95 96  96 97  97 98  98 99  99 100  </DataArray>
<DataArray  type="UInt32"  Name="offsets"  format="ascii">2 4 6 8 10 12 14 16 18 20 22 24 26 28 30 32 34 36 38 40 42 44 46 48 50 52 54 56 58 60 62 64 66 68 70 72 74 76 78 80 82 84 86 88 90 92 94 96 98 100 102 104 106 108 110 112 114 116 118 120 122 124 126 128 130 132 134 136 138 140 142 144 146 148 150 152 154 156 158 160 162 164 166 168 170 172 174 176 178 180 182 184 186 188 190 192 194 196 198 200 </DataArray>
<DataArray  type="UInt8"  Name="types"  format="ascii">3 3 3 3 3 3 3 3 3 3 3 3 3 3 3 3 3 3 3 3 3 3 3 3 3 3 3 3 3 3 3 3 3 3 3 3 3 3 3 3 3 3 3 3 3 3 3 3 3 3 3 3 3 3 3 3 3 3 3 3 3 3 3 3 3 3 3 3 3 3 3 3 3 3 3 3 3 3 3 3 3 3 3 3 3 3 3 3 3 3 3 3 3 3 3 3 3 3 3 3 </DataArray>
</Cells>
<PointData  Scalars="f_37"> 
<DataArray  type="Float64"  Name="f_37"  format="ascii">0.0000000000000000e+00  1.4261942979255434e+07  8.0257609228039503e+07  1.4209973670114735e+08  9.7176241801177010e+07  1.1745709758538523e+08  -3.6032374249295741e+08  9.1782904970380396e+07  3.4397620419355839e+08  7.8956268090659473e+06  5.8011428273604579e+07  3.5377651397560000e+08  -2.3750072706311636e+07  7.3052376025972798e+07  6.7138653001508147e+07  2.0354571841180265e+08  -8.0138862883384421e+07  4.9051430388569780e+07  4.7752855545272879e+07  8.5273914381401256e+07  1.2100750149516692e+07  4.9220127718306297e+08  -2.5146716191257191e+09  3.2258307861128020e+08  -4.0409377877841488e+07  5.6787069865994699e+07  4.7856720354541458e+07  6.0520252106708169e+07  6.7327660653244123e+07  7.7611447090114668e+07  8.7068663564762652e+07  1.2067651671366630e+08  1.0189080936511154e+08  6.3325510465041101e+08  -3.1363431297423434e+08  -2.0549750621161882e+06  -1.0286549568431014e+07  1.5089674172155434e+07  2.2751027273702558e+07  2.9986452906690259e+07  3.4781967095386043e+07  3.8617695557588838e+07  4.1636501427294761e+07  4.4092391098084547e+07  4.6092548513958082e+07  4.7714453508148171e+07  4.9002735189622283e+07  4.9985320278619312e+07  5.0678493464621425e+07  5.1091412850493178e+07  5.1228600804819725e+07  5.1091412850439876e+07  5.0678493464722849e+07  4.9985320278591767e+07  4.9002735189604491e+07  4.7714453508210324e+07  4.6092548513983175e+07  4.4092391098144740e+07  4.1636501427170113e+07  3.8617695557587124e+07  3.4781967095322013e+07  2.9986452906762730e+07  2.2751027273449223e+07  1.5089674172105800e+07  -1.0286549568671497e+07  -2.0549750624233889e+06  -3.1363431297415090e+08  6.3325510464745748e+08  1.0189080936497241e+08  1.2067651671384180e+08  8.7068663564615473e+07  7.7611447090244636e+07  6.7327660653187916e+07  6.0520252106720947e+07  4.7856720354474857e+07  5.6787069866266578e+07  -4.0409377879632965e+07  3.2258307862085617e+08  -2.5146716191955709e+09  4.9220127719219530e+08  1.2100750147698691e+07  8.5273914381637156e+07  4.7752855545096084e+07  4.9051430388694607e+07  -8.0138862883597076e+07  2.0354571841161081e+08  6.7138653001675576e+07  7.3052376025889650e+07  -2.3750072706280384e+07  3.5377651397421038e+08  5.8011428273603573e+07  7.8956268092171093e+06  3.4397620419263601e+08  9.1782904970799521e+07  -3.6032374249462777e+08  1.1745709758553906e+08  9.7176241801238656e+07  1.4209973670121711e+08  8.0257609228259608e+07  1.4261942978811665e+07  0.0000000000000000e+00  </DataArray> 
</PointData> 
</Piece>
</UnstructuredGrid>
</VTKFile>