<?xml version="1.0"?>
<VTKFile type="UnstructuredGrid"  version="0.1"  >
<UnstructuredGrid>
<Piece  NumberOfPoints="101" NumberOfCells="100">
<Points>
<DataArray  type="Float64"  NumberOfComponents="3"  format="ascii">0 0 0  1e-07 0 0  2e-07 0 0  3e-07 0 0  4e-07 0 0  5e-07 0 0  6.000000000000001e-07 0 0  7.000000000000001e-07 0 0  8.000000000000001e-07 0 0  9.000000000000001e-07 0 0  1e-06 0 0  1.1e-06 0 0  1.2e-06 0 0  1.3e-06 0 0  1.4e-06 0 0  1.5e-06 0 0  1.6e-06 0 0  1.7e-06 0 0  1.8e-06 0 0  1.9e-06 0 0  2e-06 0 0  2.1e-06 0 0  2.2e-06 0 0  2.3e-06 0 0  2.4e-06 0 0  2.5e-06 0 0  2.600000000000001e-06 0 0  2.7e-06 0 0  2.8e-06 0 0  2.9e-06 0 0  3e-06 0 0  3.1e-06 0 0  3.2e-06 0 0  3.300000000000001e-06 0 0  3.4e-06 0 0  3.5e-06 0 0  3.6e-06 0 0  3.700000000000001e-06 0 0  3.8e-06 0 0  3.900000000000001e-06 0 0  4e-06 0 0  4.100000000000001e-06 0 0  4.2e-06 0 0  4.3e-06 0 0  4.4e-06 0 0  4.5e-06 0 0  4.6e-06 0 0  4.700000000000001e-06 0 0  4.800000000000001e-06 0 0  4.900000000000001e-06 0 0  5e-06 0 0  5.1e-06 0 0  5.200000000000001e-06 0 0  5.300000000000001e-06 0 0  5.4e-06 0 0  5.500000000000001e-06 0 0  5.600000000000001e-06 0 0  5.7e-06 0 0  5.8e-06 0 0  5.9e-06 0 0  6e-06 0 0  6.100000000000001e-06 0 0  6.2e-06 0 0  6.300000000000001e-06 0 0  6.400000000000001e-06 0 0  6.5e-06 0 0  6.600000000000001e-06 0 0  6.7e-06 0 0  6.8e-06 0 0  6.900000000000001e-06 0 0  7.000000000000001e-06 0 0  7.1e-06 0 0  7.200000000000001e-06 0 0  7.3e-06 0 0  7.400000000000001e-06 0 0  7.5e-06 0 0  7.6e-06 0 0  7.700000000000001e-06 0 0  7.800000000000002e-06 0 0  7.900000000000001e-06 0 0  8e-06 0 0  8.1e-06 0 0  8.200000000000001e-06 0 0  8.300000000000002e-06 0 0  8.400000000000001e-06 0 0  8.5e-06 0 0  8.600000000000001e-06 0 0  8.700000000000001e-06 0 0  8.8e-06 0 0  8.900000000000001e-06 0 0  9e-06 0 0  9.100000000000001e-06 0 0  9.2e-06 0 0  9.300000000000001e-06 0 0  9.400000000000001e-06 0 0  9.500000000000001e-06 0 0  9.600000000000001e-06 0 0  9.7e-06 0 0  9.800000000000001e-06 0 0  9.9e-06 0 0  1e-05 0 0  </DataArray>
</Points>
<Cells>
<DataArray  type="UInt32"  Name="connectivity"  format="ascii">0 1  1 2  2 3  3 4  4 5  5 6  6 7  7 8  8 9  9 10  10 11  11 12  12 13  13 14  14 15  15 16  16 17  17 18  18 19  19 20  20 21  21 22  22 23  23 24  24 25  25 26  26 27  27 28  28 29  29 30  30 31  31 32  32 33  33 34  34 35  35 36  36 37  37 38  38 39  39 40  40 41  41 42  42 43  43 44  44 45  45 46  46 47  47 48  48 49  49 50  50 51  51 52  52 53  53 54  54 55  55 56  56 57  57 58  58 59  59 60  60 61  61 62  62 63  63 64  64 65  65 66  66 67  67 68  68 69  69 70  70 71  71 72  72 73  73 74  74 75  75 76  76 77  77 78  78 79  79 80  80 81  81 82  82 83  83 84  84 85  85 86  86 87  87 88  88 89  89 90  90 91  91 92  92 93  93 94  94 95  95 96  96 97  97 98  98 99  99 100  </DataArray>
<DataArray  type="UInt32"  Name="offsets"  format="ascii">2 4 6 8 10 12 14 16 18 20 22 24 26 28 30 32 34 36 38 40 42 44 46 48 50 52 54 56 58 60 62 64 66 68 70 72 74 76 78 80 82 84 86 88 90 92 94 96 98 100 102 104 106 108 110 112 114 116 118 120 122 124 126 128 130 132 134 136 138 140 142 144 146 148 150 152 154 156 158 160 162 164 166 168 170 172 174 176 178 180 182 184 186 188 190 192 194 196 198 200 </DataArray>
<DataArray  type="UInt8"  Name="types"  format="ascii">3 3 3 3 3 3 3 3 3 3 3 3 3 3 3 3 3 3 3 3 3 3 3 3 3 3 3 3 3 3 3 3 3 3 3 3 3 3 3 3 3 3 3 3 3 3 3 3 3 3 3 3 3 3 3 3 3 3 3 3 3 3 3 3 3 3 3 3 3 3 3 3 3 3 3 3 3 3 3 3 3 3 3 3 3 3 3 3 3 3 3 3 3 3 3 3 3 3 3 3 </DataArray>
</Cells>
<PointData  Scalars="f_41"> 
<DataArray  type="Float64"  Name="f_41"  format="ascii">0.0000000000000000e+00  1.1483103338066358e-03  9.6331636819198697e-04  1.0087647646234404e-03  9.9722650102730356e-04  1.0002511433687251e-03  9.9947085278268748e-04  9.9968675215393447e-04  9.9963503834897571e-04  9.9965227004930623e-04  9.9964962364566703e-04  9.9965131892137613e-04  9.9965122050345431e-04  9.9965120624781315e-04  9.9965094485595231e-04  9.9965066335530053e-04  9.9965043454788068e-04  9.9965040082517680e-04  9.9965075659382832e-04  9.9965181090004834e-04  9.9965404948600058e-04  9.9965821664174019e-04  9.9966539311131244e-04  9.9967700178519897e-04  9.9969465184620177e-04  9.9971951709542707e-04  9.9975192662007397e-04  9.9978919950216723e-04  9.9982806599894993e-04  9.9986393910923496e-04  9.9989370329165122e-04  9.9991630970753718e-04  9.9993299610076376e-04  9.9994374459041937e-04  9.9994776769396043e-04  9.9994195792624881e-04  9.9992859453741450e-04  9.9990729016916470e-04  9.9987653612242057e-04  9.9983388752115476e-04  9.9977634661506626e-04  9.9969656123133984e-04  9.9958567638687846e-04  9.9937906788742170e-04  9.9907818274742443e-04  9.9790392990938459e-04  9.9718686210571706e-04  9.8404672979774429e-04  9.9851633689439375e-04  6.8399538326677169e-04  1.6161185537077428e-03  1.2375134064000922e-03  1.3483488743699689e-03  1.6134474065821200e-03  1.5213078986271501e-03  5.9554805305909063e-03  -1.0823076107624289e-02  -1.3467947401019391e-05  -8.4599856511919920e-04  -2.3859625708995644e-04  -1.9592679514472081e-04  -1.0274597280012376e-04  -6.7126497194757378e-05  -4.0626958914852688e-05  -2.5682644060139611e-05  -1.6032448964188473e-05  -1.0091777047188230e-05  -6.3369983429676172e-06  -3.9833612652193149e-06  -2.5011682181167804e-06  -1.5696196626532159e-06  -9.8405394726159485e-07  -6.1638876233032563e-07  -3.8572034813346034e-07  -2.4115068446502432e-07  -1.5062899754266543e-07  -9.4004387065987692e-08  -5.8616616991297698e-08  -3.6520905738329648e-08  -2.2736558596331995e-08  -1.4144388727704988e-08  -8.7929159683518938e-09  -5.4623964948847426e-09  -3.3911463804818871e-09  -2.1039410336964509e-09  -1.3045305173528126e-09  -8.0838410917393335e-10  -5.0064801602760138e-10  -3.0988864913347913e-10  -1.9170899741567905e-10  -1.1853423201642061e-10  -7.3248635183838603e-11  -4.5234718195727016e-11  -2.7909376011442101e-11  -1.7192188127304796e-11  -1.0553587868577863e-11  -6.4233272596619238e-12  -3.8223822424103091e-12  -2.1328959859244988e-12  -9.5263500265774505e-13  0.0000000000000000e+00  </DataArray> 
</PointData> 
</Piece>
</UnstructuredGrid>
</VTKFile>