<?xml version="1.0"?>
<VTKFile type="UnstructuredGrid"  version="0.1"  >
<UnstructuredGrid>
<Piece  NumberOfPoints="101" NumberOfCells="100">
<Points>
<DataArray  type="Float64"  NumberOfComponents="3"  format="ascii">0 0 0  1e-07 0 0  2e-07 0 0  3e-07 0 0  4e-07 0 0  5e-07 0 0  6.000000000000001e-07 0 0  7.000000000000001e-07 0 0  8.000000000000001e-07 0 0  9.000000000000001e-07 0 0  1e-06 0 0  1.1e-06 0 0  1.2e-06 0 0  1.3e-06 0 0  1.4e-06 0 0  1.5e-06 0 0  1.6e-06 0 0  1.7e-06 0 0  1.8e-06 0 0  1.9e-06 0 0  2e-06 0 0  2.1e-06 0 0  2.2e-06 0 0  2.3e-06 0 0  2.4e-06 0 0  2.5e-06 0 0  2.600000000000001e-06 0 0  2.7e-06 0 0  2.8e-06 0 0  2.9e-06 0 0  3e-06 0 0  3.1e-06 0 0  3.2e-06 0 0  3.300000000000001e-06 0 0  3.4e-06 0 0  3.5e-06 0 0  3.6e-06 0 0  3.700000000000001e-06 0 0  3.8e-06 0 0  3.900000000000001e-06 0 0  4e-06 0 0  4.100000000000001e-06 0 0  4.2e-06 0 0  4.3e-06 0 0  4.4e-06 0 0  4.5e-06 0 0  4.6e-06 0 0  4.700000000000001e-06 0 0  4.800000000000001e-06 0 0  4.900000000000001e-06 0 0  5e-06 0 0  5.1e-06 0 0  5.200000000000001e-06 0 0  5.300000000000001e-06 0 0  5.4e-06 0 0  5.500000000000001e-06 0 0  5.600000000000001e-06 0 0  5.7e-06 0 0  5.8e-06 0 0  5.9e-06 0 0  6e-06 0 0  6.100000000000001e-06 0 0  6.2e-06 0 0  6.300000000000001e-06 0 0  6.400000000000001e-06 0 0  6.5e-06 0 0  6.600000000000001e-06 0 0  6.7e-06 0 0  6.8e-06 0 0  6.900000000000001e-06 0 0  7.000000000000001e-06 0 0  7.1e-06 0 0  7.200000000000001e-06 0 0  7.3e-06 0 0  7.400000000000001e-06 0 0  7.5e-06 0 0  7.6e-06 0 0  7.700000000000001e-06 0 0  7.800000000000002e-06 0 0  7.900000000000001e-06 0 0  8e-06 0 0  8.1e-06 0 0  8.200000000000001e-06 0 0  8.300000000000002e-06 0 0  8.400000000000001e-06 0 0  8.5e-06 0 0  8.600000000000001e-06 0 0  8.700000000000001e-06 0 0  8.8e-06 0 0  8.900000000000001e-06 0 0  9e-06 0 0  9.100000000000001e-06 0 0  9.2e-06 0 0  9.300000000000001e-06 0 0  9.400000000000001e-06 0 0  9.500000000000001e-06 0 0  9.600000000000001e-06 0 0  9.7e-06 0 0  9.800000000000001e-06 0 0  9.9e-06 0 0  1e-05 0 0  </DataArray>
</Points>
<Cells>
<DataArray  type="UInt32"  Name="connectivity"  format="ascii">0 1  1 2  2 3  3 4  4 5  5 6  6 7  7 8  8 9  9 10  10 11  11 12  12 13  13 14  14 15  15 16  16 17  17 18  18 19  19 20  20 21  21 22  22 23  23 24  24 25  25 26  26 27  27 28  28 29  29 30  30 31  31 32  32 33  33 34  34 35  35 36  36 37  37 38  38 39  39 40  40 41  41 42  42 43  43 44  44 45  45 46  46 47  47 48  48 49  49 50  50 51  51 52  52 53  53 54  54 55  55 56  56 57  57 58  58 59  59 60  60 61  61 62  62 63  63 64  64 65  65 66  66 67  67 68  68 69  69 70  70 71  71 72  72 73  73 74  74 75  75 76  76 77  77 78  78 79  79 80  80 81  81 82  82 83  83 84  84 85  85 86  86 87  87 88  88 89  89 90  90 91  91 92  92 93  93 94  94 95  95 96  96 97  97 98  98 99  99 100  </DataArray>
<DataArray  type="UInt32"  Name="offsets"  format="ascii">2 4 6 8 10 12 14 16 18 20 22 24 26 28 30 32 34 36 38 40 42 44 46 48 50 52 54 56 58 60 62 64 66 68 70 72 74 76 78 80 82 84 86 88 90 92 94 96 98 100 102 104 106 108 110 112 114 116 118 120 122 124 126 128 130 132 134 136 138 140 142 144 146 148 150 152 154 156 158 160 162 164 166 168 170 172 174 176 178 180 182 184 186 188 190 192 194 196 198 200 </DataArray>
<DataArray  type="UInt8"  Name="types"  format="ascii">3 3 3 3 3 3 3 3 3 3 3 3 3 3 3 3 3 3 3 3 3 3 3 3 3 3 3 3 3 3 3 3 3 3 3 3 3 3 3 3 3 3 3 3 3 3 3 3 3 3 3 3 3 3 3 3 3 3 3 3 3 3 3 3 3 3 3 3 3 3 3 3 3 3 3 3 3 3 3 3 3 3 3 3 3 3 3 3 3 3 3 3 3 3 3 3 3 3 3 3 </DataArray>
</Cells>
<PointData  Scalars="f_37"> 
<DataArray  type="Float64"  Name="f_37"  format="ascii">0.0000000000000000e+00  3.2340089847373520e+06  1.8199051119090144e+07  3.2222245306180187e+07  2.2035485595835816e+07  2.6634330922850162e+07  -8.1706273986046076e+07  2.0812503580420151e+07  7.7999339677341223e+07  1.7903961667630356e+06  1.3154552681017458e+07  8.0221637854695901e+07  -5.3855178520976566e+06  1.6565207192880208e+07  1.5224223469821580e+07  4.6155610291393831e+07  -1.8172124441142175e+07  1.1122801908659453e+07  1.0828339736381486e+07  1.9336538203406144e+07  2.7439413243009085e+06  1.1161055369696261e+08  -5.7022178687332737e+08  7.3148278328593254e+07  -9.1631477782983594e+06  1.2876919675717300e+07  1.0851891907839496e+07  1.3723448435907483e+07  1.5267082457884381e+07  1.7599012811436791e+07  1.9743511852984343e+07  2.7364359811735604e+07  2.3104551282263711e+07  1.4359563076707378e+08  -7.1119074557788849e+07  -4.6598193696054647e+05  -2.3325569156068000e+06  3.4217036150328070e+06  5.1589763556184983e+06  6.7996666556370249e+06  7.8870876329355286e+06  8.7568695643188823e+06  9.4414078015006986e+06  9.9983003141415417e+06  1.0451851913894270e+07  1.0819631769081680e+07  1.1111759885062741e+07  1.1334568867731305e+07  1.1491751399927050e+07  1.1585384154301664e+07  1.1616492613894824e+07  1.1585384154289538e+07  1.1491751399950031e+07  1.1334568867725125e+07  1.1111759885058796e+07  1.0819631769095719e+07  1.0451851913899994e+07  9.9983003141551856e+06  9.4414078014724329e+06  8.7568695643185154e+06  7.8870876329209926e+06  6.7996666556534339e+06  5.1589763555610990e+06  3.4217036150215133e+06  -2.3325569156613187e+06  -4.6598193703021662e+05  -7.1119074557769895e+07  1.4359563076640370e+08  2.3104551282232273e+07  2.7364359811775371e+07  1.9743511852950927e+07  1.7599012811466392e+07  1.5267082457871594e+07  1.3723448435910337e+07  1.0851891907824336e+07  1.2876919675779080e+07  -9.1631477787050046e+06  7.3148278330765724e+07  -5.7022178688917077e+08  1.1161055369903551e+08  2.7439413238881840e+06  1.9336538203459702e+07  1.0828339736341156e+07  1.1122801908687744e+07  -1.8172124441190254e+07  4.6155610291350044e+07  1.5224223469859453e+07  1.6565207192861274e+07  -5.3855178520904873e+06  8.0221637854380578e+07  1.3154552681017248e+07  1.7903961667972028e+06  7.7999339677132145e+07  2.0812503580515172e+07  -8.1706273986425132e+07  2.6634330922885150e+07  2.2035485595849693e+07  3.2222245306195993e+07  1.8199051119140003e+07  3.2340089846367091e+06  0.0000000000000000e+00  </DataArray> 
</PointData> 
</Piece>
</UnstructuredGrid>
</VTKFile>