<?xml version="1.0"?>
<VTKFile type="UnstructuredGrid"  version="0.1"  >
<UnstructuredGrid>
<Piece  NumberOfPoints="101" NumberOfCells="100">
<Points>
<DataArray  type="Float64"  NumberOfComponents="3"  format="ascii">0 0 0  1e-07 0 0  2e-07 0 0  3e-07 0 0  4e-07 0 0  5e-07 0 0  6.000000000000001e-07 0 0  7.000000000000001e-07 0 0  8.000000000000001e-07 0 0  9.000000000000001e-07 0 0  1e-06 0 0  1.1e-06 0 0  1.2e-06 0 0  1.3e-06 0 0  1.4e-06 0 0  1.5e-06 0 0  1.6e-06 0 0  1.7e-06 0 0  1.8e-06 0 0  1.9e-06 0 0  2e-06 0 0  2.1e-06 0 0  2.2e-06 0 0  2.3e-06 0 0  2.4e-06 0 0  2.5e-06 0 0  2.600000000000001e-06 0 0  2.7e-06 0 0  2.8e-06 0 0  2.9e-06 0 0  3e-06 0 0  3.1e-06 0 0  3.2e-06 0 0  3.300000000000001e-06 0 0  3.4e-06 0 0  3.5e-06 0 0  3.6e-06 0 0  3.700000000000001e-06 0 0  3.8e-06 0 0  3.900000000000001e-06 0 0  4e-06 0 0  4.100000000000001e-06 0 0  4.2e-06 0 0  4.3e-06 0 0  4.4e-06 0 0  4.5e-06 0 0  4.6e-06 0 0  4.700000000000001e-06 0 0  4.800000000000001e-06 0 0  4.900000000000001e-06 0 0  5e-06 0 0  5.1e-06 0 0  5.200000000000001e-06 0 0  5.300000000000001e-06 0 0  5.4e-06 0 0  5.500000000000001e-06 0 0  5.600000000000001e-06 0 0  5.7e-06 0 0  5.8e-06 0 0  5.9e-06 0 0  6e-06 0 0  6.100000000000001e-06 0 0  6.2e-06 0 0  6.300000000000001e-06 0 0  6.400000000000001e-06 0 0  6.5e-06 0 0  6.600000000000001e-06 0 0  6.7e-06 0 0  6.8e-06 0 0  6.900000000000001e-06 0 0  7.000000000000001e-06 0 0  7.1e-06 0 0  7.200000000000001e-06 0 0  7.3e-06 0 0  7.400000000000001e-06 0 0  7.5e-06 0 0  7.6e-06 0 0  7.700000000000001e-06 0 0  7.800000000000002e-06 0 0  7.900000000000001e-06 0 0  8e-06 0 0  8.1e-06 0 0  8.200000000000001e-06 0 0  8.300000000000002e-06 0 0  8.400000000000001e-06 0 0  8.5e-06 0 0  8.600000000000001e-06 0 0  8.700000000000001e-06 0 0  8.8e-06 0 0  8.900000000000001e-06 0 0  9e-06 0 0  9.100000000000001e-06 0 0  9.2e-06 0 0  9.300000000000001e-06 0 0  9.400000000000001e-06 0 0  9.500000000000001e-06 0 0  9.600000000000001e-06 0 0  9.7e-06 0 0  9.800000000000001e-06 0 0  9.9e-06 0 0  1e-05 0 0  </DataArray>
</Points>
<Cells>
<DataArray  type="UInt32"  Name="connectivity"  format="ascii">0 1  1 2  2 3  3 4  4 5  5 6  6 7  7 8  8 9  9 10  10 11  11 12  12 13  13 14  14 15  15 16  16 17  17 18  18 19  19 20  20 21  21 22  22 23  23 24  24 25  25 26  26 27  27 28  28 29  29 30  30 31  31 32  32 33  33 34  34 35  35 36  36 37  37 38  38 39  39 40  40 41  41 42  42 43  43 44  44 45  45 46  46 47  47 48  48 49  49 50  50 51  51 52  52 53  53 54  54 55  55 56  56 57  57 58  58 59  59 60  60 61  61 62  62 63  63 64  64 65  65 66  66 67  67 68  68 69  69 70  70 71  71 72  72 73  73 74  74 75  75 76  76 77  77 78  78 79  79 80  80 81  81 82  82 83  83 84  84 85  85 86  86 87  87 88  88 89  89 90  90 91  91 92  92 93  93 94  94 95  95 96  96 97  97 98  98 99  99 100  </DataArray>
<DataArray  type="UInt32"  Name="offsets"  format="ascii">2 4 6 8 10 12 14 16 18 20 22 24 26 28 30 32 34 36 38 40 42 44 46 48 50 52 54 56 58 60 62 64 66 68 70 72 74 76 78 80 82 84 86 88 90 92 94 96 98 100 102 104 106 108 110 112 114 116 118 120 122 124 126 128 130 132 134 136 138 140 142 144 146 148 150 152 154 156 158 160 162 164 166 168 170 172 174 176 178 180 182 184 186 188 190 192 194 196 198 200 </DataArray>
<DataArray  type="UInt8"  Name="types"  format="ascii">3 3 3 3 3 3 3 3 3 3 3 3 3 3 3 3 3 3 3 3 3 3 3 3 3 3 3 3 3 3 3 3 3 3 3 3 3 3 3 3 3 3 3 3 3 3 3 3 3 3 3 3 3 3 3 3 3 3 3 3 3 3 3 3 3 3 3 3 3 3 3 3 3 3 3 3 3 3 3 3 3 3 3 3 3 3 3 3 3 3 3 3 3 3 3 3 3 3 3 3 </DataArray>
</Cells>
<PointData  Scalars="f_38"> 
<DataArray  type="Float64"  Name="f_38"  format="ascii">0.0000000000000000e+00  2.8488863787519888e-19  5.6852126800125121e-19  8.4965907586251887e-19  1.1270972269938749e-18  1.3996808549137456e-18  1.6663198849645559e-18  1.9260023681791945e-18  2.1778060489161984e-18  2.4209079477266166e-18  2.6545918042258814e-18  2.8782532909703813e-18  3.0914029757806637e-18  3.2936670740228890e-18  3.4847860917047174e-18  3.6646115128494513e-18  3.8331007288906415e-18  3.9903104426564610e-18  4.1363888042578341e-18  4.2715665507090974e-18  4.3961474256972683e-18  4.5104981512736830e-18  4.6150382103923115e-18  4.7102296794286431e-18  4.7965673245058199e-18  4.8745691461293513e-18  4.9447675247822284e-18  5.0077010871796651e-18  5.0639073801190730e-18  5.1139164074061353e-18  5.1582450561127605e-18  5.1973924121340288e-18  5.2318359421510267e-18  5.2620284999611618e-18  5.2883960998065584e-18  5.3113363877512665e-18  5.3312177341320328e-18  5.3483788653347415e-18  5.3631289512556076e-18  5.3757480653749627e-18  5.3864879369661436e-18  5.3955729191512190e-18  5.4032011018904017e-18  5.4095455051820802e-18  5.4147552944313376e-18  5.4189569668468875e-18  5.4222554646361154e-18  5.4247351775289952e-18  5.4264608036717532e-18  5.4274780441383374e-18  5.4278141122038271e-18  5.4274780441383359e-18  5.4264608036717493e-18  5.4247351775289890e-18  5.4222554646361061e-18  5.4189569668468729e-18  5.4147552944313191e-18  5.4095455051820578e-18  5.4032011018903748e-18  5.3955729191511874e-18  5.3864879369661066e-18  5.3757480653749219e-18  5.3631289512555668e-18  5.3483788653347006e-18  5.3312177341319935e-18  5.3113363877512287e-18  5.2883960998065214e-18  5.2620284999611272e-18  5.2318359421509974e-18  5.1973924121340057e-18  5.1582450561127420e-18  5.1139164074061214e-18  5.0639073801190599e-18  5.0077010871796551e-18  4.9447675247822207e-18  4.8745691461293467e-18  4.7965673245058176e-18  4.7102296794286439e-18  4.6150382103923154e-18  4.5104981512736907e-18  4.3961474256972807e-18  4.2715665507091097e-18  4.1363888042578480e-18  3.9903104426564749e-18  3.8331007288906569e-18  3.6646115128494682e-18  3.4847860917047336e-18  3.2936670740229028e-18  3.0914029757806787e-18  2.8782532909703944e-18  2.6545918042258956e-18  2.4209079477266274e-18  2.1778060489162107e-18  1.9260023681792037e-18  1.6663198849645615e-18  1.3996808549137523e-18  1.1270972269938783e-18  8.4965907586252387e-19  5.6852126800125304e-19  2.8488863787520230e-19  0.0000000000000000e+00  </DataArray> 
</PointData> 
</Piece>
</UnstructuredGrid>
</VTKFile>