<?xml version="1.0"?>
<VTKFile type="UnstructuredGrid"  version="0.1"  >
<UnstructuredGrid>
<Piece  NumberOfPoints="101" NumberOfCells="100">
<Points>
<DataArray  type="Float64"  NumberOfComponents="3"  format="ascii">0 0 0  1e-07 0 0  2e-07 0 0  3e-07 0 0  4e-07 0 0  5e-07 0 0  6.000000000000001e-07 0 0  7.000000000000001e-07 0 0  8.000000000000001e-07 0 0  9.000000000000001e-07 0 0  1e-06 0 0  1.1e-06 0 0  1.2e-06 0 0  1.3e-06 0 0  1.4e-06 0 0  1.5e-06 0 0  1.6e-06 0 0  1.7e-06 0 0  1.8e-06 0 0  1.9e-06 0 0  2e-06 0 0  2.1e-06 0 0  2.2e-06 0 0  2.3e-06 0 0  2.4e-06 0 0  2.5e-06 0 0  2.600000000000001e-06 0 0  2.7e-06 0 0  2.8e-06 0 0  2.9e-06 0 0  3e-06 0 0  3.1e-06 0 0  3.2e-06 0 0  3.300000000000001e-06 0 0  3.4e-06 0 0  3.5e-06 0 0  3.6e-06 0 0  3.700000000000001e-06 0 0  3.8e-06 0 0  3.900000000000001e-06 0 0  4e-06 0 0  4.100000000000001e-06 0 0  4.2e-06 0 0  4.3e-06 0 0  4.4e-06 0 0  4.5e-06 0 0  4.6e-06 0 0  4.700000000000001e-06 0 0  4.800000000000001e-06 0 0  4.900000000000001e-06 0 0  5e-06 0 0  5.1e-06 0 0  5.200000000000001e-06 0 0  5.300000000000001e-06 0 0  5.4e-06 0 0  5.500000000000001e-06 0 0  5.600000000000001e-06 0 0  5.7e-06 0 0  5.8e-06 0 0  5.9e-06 0 0  6e-06 0 0  6.100000000000001e-06 0 0  6.2e-06 0 0  6.300000000000001e-06 0 0  6.400000000000001e-06 0 0  6.5e-06 0 0  6.600000000000001e-06 0 0  6.7e-06 0 0  6.8e-06 0 0  6.900000000000001e-06 0 0  7.000000000000001e-06 0 0  7.1e-06 0 0  7.200000000000001e-06 0 0  7.3e-06 0 0  7.400000000000001e-06 0 0  7.5e-06 0 0  7.6e-06 0 0  7.700000000000001e-06 0 0  7.800000000000002e-06 0 0  7.900000000000001e-06 0 0  8e-06 0 0  8.1e-06 0 0  8.200000000000001e-06 0 0  8.300000000000002e-06 0 0  8.400000000000001e-06 0 0  8.5e-06 0 0  8.600000000000001e-06 0 0  8.700000000000001e-06 0 0  8.8e-06 0 0  8.900000000000001e-06 0 0  9e-06 0 0  9.100000000000001e-06 0 0  9.2e-06 0 0  9.300000000000001e-06 0 0  9.400000000000001e-06 0 0  9.500000000000001e-06 0 0  9.600000000000001e-06 0 0  9.7e-06 0 0  9.800000000000001e-06 0 0  9.9e-06 0 0  1e-05 0 0  </DataArray>
</Points>
<Cells>
<DataArray  type="UInt32"  Name="connectivity"  format="ascii">0 1  1 2  2 3  3 4  4 5  5 6  6 7  7 8  8 9  9 10  10 11  11 12  12 13  13 14  14 15  15 16  16 17  17 18  18 19  19 20  20 21  21 22  22 23  23 24  24 25  25 26  26 27  27 28  28 29  29 30  30 31  31 32  32 33  33 34  34 35  35 36  36 37  37 38  38 39  39 40  40 41  41 42  42 43  43 44  44 45  45 46  46 47  47 48  48 49  49 50  50 51  51 52  52 53  53 54  54 55  55 56  56 57  57 58  58 59  59 60  60 61  61 62  62 63  63 64  64 65  65 66  66 67  67 68  68 69  69 70  70 71  71 72  72 73  73 74  74 75  75 76  76 77  77 78  78 79  79 80  80 81  81 82  82 83  83 84  84 85  85 86  86 87  87 88  88 89  89 90  90 91  91 92  92 93  93 94  94 95  95 96  96 97  97 98  98 99  99 100  </DataArray>
<DataArray  type="UInt32"  Name="offsets"  format="ascii">2 4 6 8 10 12 14 16 18 20 22 24 26 28 30 32 34 36 38 40 42 44 46 48 50 52 54 56 58 60 62 64 66 68 70 72 74 76 78 80 82 84 86 88 90 92 94 96 98 100 102 104 106 108 110 112 114 116 118 120 122 124 126 128 130 132 134 136 138 140 142 144 146 148 150 152 154 156 158 160 162 164 166 168 170 172 174 176 178 180 182 184 186 188 190 192 194 196 198 200 </DataArray>
<DataArray  type="UInt8"  Name="types"  format="ascii">3 3 3 3 3 3 3 3 3 3 3 3 3 3 3 3 3 3 3 3 3 3 3 3 3 3 3 3 3 3 3 3 3 3 3 3 3 3 3 3 3 3 3 3 3 3 3 3 3 3 3 3 3 3 3 3 3 3 3 3 3 3 3 3 3 3 3 3 3 3 3 3 3 3 3 3 3 3 3 3 3 3 3 3 3 3 3 3 3 3 3 3 3 3 3 3 3 3 3 3 </DataArray>
</Cells>
<PointData  Scalars="f_38"> 
<DataArray  type="Float64"  Name="f_38"  format="ascii">0.0000000000000000e+00  1.2514355961449090e-08  2.4827482285451360e-08  3.6749588786573207e-08  4.8112443942540756e-08  5.8777133166529202e-08  6.8638852766107978e-08  7.7628617942236605e-08  8.5712178156029614e-08  9.2886716217267000e-08  9.9176041548265928e-08  1.0462499191333151e-07  1.0929366881607826e-07  1.1325199107997625e-07  1.1657489459402136e-07  1.1933835958729923e-07  1.2161632526861655e-07  1.2347846144750658e-07  1.2498870762672111e-07  1.2620445792301064e-07  1.2717625914299082e-07  1.2794789322780560e-07  1.2855672851245840e-07  1.2903424231154305e-07  1.2940663690901733e-07  1.2969548985682279e-07  1.2991839624702532e-07  1.3008957467916694e-07  1.3022041984842832e-07  1.3031999318965570e-07  1.3039544915767840e-07  1.3045239890883961e-07  1.3049521578267582e-07  1.3052728844430925e-07  1.3055122816305294e-07  1.3056903673725460e-07  1.3058224123777416e-07  1.3059200118891324e-07  1.3059919314838440e-07  1.3060447696397485e-07  1.3060834732357732e-07  1.3061117360660447e-07  1.3061323050336565e-07  1.3061472139975450e-07  1.3061579612615712e-07  1.3061656433656337e-07  1.3061710550911796e-07  1.3061747633461054e-07  1.3061771607641581e-07  1.3061785033627412e-07  1.3061789353772361e-07  1.3061785033627412e-07  1.3061771607641586e-07  1.3061747633461054e-07  1.3061710550911796e-07  1.3061656433656329e-07  1.3061579612615697e-07  1.3061472139975424e-07  1.3061323050336531e-07  1.3061117360660404e-07  1.3060834732357682e-07  1.3060447696397429e-07  1.3059919314838379e-07  1.3059200118891266e-07  1.3058224123777363e-07  1.3056903673725412e-07  1.3055122816305251e-07  1.3052728844430886e-07  1.3049521578267551e-07  1.3045239890883940e-07  1.3039544915767827e-07  1.3031999318965565e-07  1.3022041984842827e-07  1.3008957467916694e-07  1.2991839624702532e-07  1.2969548985682282e-07  1.2940663690901738e-07  1.2903424231154313e-07  1.2855672851245853e-07  1.2794789322780579e-07  1.2717625914299101e-07  1.2620445792301085e-07  1.2498870762672140e-07  1.2347846144750690e-07  1.2161632526861689e-07  1.1933835958729957e-07  1.1657489459402166e-07  1.1325199107997651e-07  1.0929366881607852e-07  1.0462499191333172e-07  9.9176041548266180e-08  9.2886716217267159e-08  8.5712178156029812e-08  7.7628617942236711e-08  6.8638852766107991e-08  5.8777133166529288e-08  4.8112443942540756e-08  3.6749588786573300e-08  2.4827482285451353e-08  1.2514355961449196e-08  0.0000000000000000e+00  </DataArray> 
</PointData> 
</Piece>
</UnstructuredGrid>
</VTKFile>