<?xml version="1.0"?>
<VTKFile type="UnstructuredGrid"  version="0.1"  >
<UnstructuredGrid>
<Piece  NumberOfPoints="101" NumberOfCells="100">
<Points>
<DataArray  type="Float64"  NumberOfComponents="3"  format="ascii">0 0 0  1e-07 0 0  2e-07 0 0  3e-07 0 0  4e-07 0 0  5e-07 0 0  6.000000000000001e-07 0 0  7.000000000000001e-07 0 0  8.000000000000001e-07 0 0  9.000000000000001e-07 0 0  1e-06 0 0  1.1e-06 0 0  1.2e-06 0 0  1.3e-06 0 0  1.4e-06 0 0  1.5e-06 0 0  1.6e-06 0 0  1.7e-06 0 0  1.8e-06 0 0  1.9e-06 0 0  2e-06 0 0  2.1e-06 0 0  2.2e-06 0 0  2.3e-06 0 0  2.4e-06 0 0  2.5e-06 0 0  2.600000000000001e-06 0 0  2.7e-06 0 0  2.8e-06 0 0  2.9e-06 0 0  3e-06 0 0  3.1e-06 0 0  3.2e-06 0 0  3.300000000000001e-06 0 0  3.4e-06 0 0  3.5e-06 0 0  3.6e-06 0 0  3.700000000000001e-06 0 0  3.8e-06 0 0  3.900000000000001e-06 0 0  4e-06 0 0  4.100000000000001e-06 0 0  4.2e-06 0 0  4.3e-06 0 0  4.4e-06 0 0  4.5e-06 0 0  4.6e-06 0 0  4.700000000000001e-06 0 0  4.800000000000001e-06 0 0  4.900000000000001e-06 0 0  5e-06 0 0  5.1e-06 0 0  5.200000000000001e-06 0 0  5.300000000000001e-06 0 0  5.4e-06 0 0  5.500000000000001e-06 0 0  5.600000000000001e-06 0 0  5.7e-06 0 0  5.8e-06 0 0  5.9e-06 0 0  6e-06 0 0  6.100000000000001e-06 0 0  6.2e-06 0 0  6.300000000000001e-06 0 0  6.400000000000001e-06 0 0  6.5e-06 0 0  6.600000000000001e-06 0 0  6.7e-06 0 0  6.8e-06 0 0  6.900000000000001e-06 0 0  7.000000000000001e-06 0 0  7.1e-06 0 0  7.200000000000001e-06 0 0  7.3e-06 0 0  7.400000000000001e-06 0 0  7.5e-06 0 0  7.6e-06 0 0  7.700000000000001e-06 0 0  7.800000000000002e-06 0 0  7.900000000000001e-06 0 0  8e-06 0 0  8.1e-06 0 0  8.200000000000001e-06 0 0  8.300000000000002e-06 0 0  8.400000000000001e-06 0 0  8.5e-06 0 0  8.600000000000001e-06 0 0  8.700000000000001e-06 0 0  8.8e-06 0 0  8.900000000000001e-06 0 0  9e-06 0 0  9.100000000000001e-06 0 0  9.2e-06 0 0  9.300000000000001e-06 0 0  9.400000000000001e-06 0 0  9.500000000000001e-06 0 0  9.600000000000001e-06 0 0  9.7e-06 0 0  9.800000000000001e-06 0 0  9.9e-06 0 0  1e-05 0 0  </DataArray>
</Points>
<Cells>
<DataArray  type="UInt32"  Name="connectivity"  format="ascii">0 1  1 2  2 3  3 4  4 5  5 6  6 7  7 8  8 9  9 10  10 11  11 12  12 13  13 14  14 15  15 16  16 17  17 18  18 19  19 20  20 21  21 22  22 23  23 24  24 25  25 26  26 27  27 28  28 29  29 30  30 31  31 32  32 33  33 34  34 35  35 36  36 37  37 38  38 39  39 40  40 41  41 42  42 43  43 44  44 45  45 46  46 47  47 48  48 49  49 50  50 51  51 52  52 53  53 54  54 55  55 56  56 57  57 58  58 59  59 60  60 61  61 62  62 63  63 64  64 65  65 66  66 67  67 68  68 69  69 70  70 71  71 72  72 73  73 74  74 75  75 76  76 77  77 78  78 79  79 80  80 81  81 82  82 83  83 84  84 85  85 86  86 87  87 88  88 89  89 90  90 91  91 92  92 93  93 94  94 95  95 96  96 97  97 98  98 99  99 100  </DataArray>
<DataArray  type="UInt32"  Name="offsets"  format="ascii">2 4 6 8 10 12 14 16 18 20 22 24 26 28 30 32 34 36 38 40 42 44 46 48 50 52 54 56 58 60 62 64 66 68 70 72 74 76 78 80 82 84 86 88 90 92 94 96 98 100 102 104 106 108 110 112 114 116 118 120 122 124 126 128 130 132 134 136 138 140 142 144 146 148 150 152 154 156 158 160 162 164 166 168 170 172 174 176 178 180 182 184 186 188 190 192 194 196 198 200 </DataArray>
<DataArray  type="UInt8"  Name="types"  format="ascii">3 3 3 3 3 3 3 3 3 3 3 3 3 3 3 3 3 3 3 3 3 3 3 3 3 3 3 3 3 3 3 3 3 3 3 3 3 3 3 3 3 3 3 3 3 3 3 3 3 3 3 3 3 3 3 3 3 3 3 3 3 3 3 3 3 3 3 3 3 3 3 3 3 3 3 3 3 3 3 3 3 3 3 3 3 3 3 3 3 3 3 3 3 3 3 3 3 3 3 3 </DataArray>
</Cells>
<PointData  Scalars="f_37"> 
<DataArray  type="Float64"  Name="f_37"  format="ascii">0.0000000000000000e+00  5.2247015240895957e+07  2.9401467518377125e+08  5.2056631553996873e+08  3.5599417231046492e+08  4.3029079394169438e+08  -1.3200052821042080e+09  3.3623629275592226e+08  1.2601179242650857e+09  2.8924735909386758e+07  2.1251830704734787e+08  1.2960202508479760e+09  -8.7005705496362597e+07  2.6761911817795518e+08  2.4595486265267557e+08  7.4566672069499874e+08  -2.9357966137898421e+08  1.7969436806941429e+08  1.7493718598504800e+08  3.1239134182603115e+08  4.4329729715483032e+07  1.8031237165915716e+09  -9.2122150958963890e+09  1.1817466280137067e+09  -1.4803518601425380e+08  2.0803300848208562e+08  1.7531768296787468e+08  2.2170909944046843e+08  2.4664727081019187e+08  2.8432075944233733e+08  3.1896620249354595e+08  4.4208477183845317e+08  3.7326545741695040e+08  2.3198584619339404e+09  -1.1489638371060274e+09  -7.5281687457472244e+06  -3.7683611052138790e+07  5.5279314859097227e+07  8.3345815534682512e+07  1.0985197909675302e+08  1.2741980300890560e+08  1.4147156045290598e+08  1.5253061436394998e+08  1.6152748843968767e+08  1.6885483893767670e+08  1.7479650446487650e+08  1.7951597871494582e+08  1.8311556806928435e+08  1.8565492964619598e+08  1.8716761311984876e+08  1.8767018567612585e+08  1.8716761311965400e+08  1.8565492964656761e+08  1.8311556806918249e+08  1.7951597871487945e+08  1.7479650446510494e+08  1.6885483893776870e+08  1.6152748843990842e+08  1.5253061436349350e+08  1.4147156045289886e+08  1.2741980300867173e+08  1.0985197909701878e+08  8.3345815533753872e+07  5.5279314858916067e+07  -3.7683611053020112e+07  -7.5281687468719212e+06  -1.1489638371057236e+09  2.3198584619231267e+09  3.7326545741643870e+08  4.4208477183909631e+08  3.1896620249300665e+08  2.8432075944281149e+08  2.4664727080998647e+08  2.2170909944051543e+08  1.7531768296763155e+08  2.0803300848308000e+08  -1.4803518602081084e+08  1.1817466280487707e+09  -9.2122150961522255e+09  1.8031237166249957e+09  4.4329729708829477e+07  3.1239134182689500e+08  1.7493718598440331e+08  1.7969436806987211e+08  -2.9357966137976539e+08  7.4566672069430053e+08  2.4595486265329042e+08  2.6761911817765197e+08  -8.7005705496249706e+07  1.2960202508428874e+09  2.1251830704734296e+08  2.8924735909942690e+07  1.2601179242617028e+09  3.3623629275745785e+08  -1.3200052821103234e+09  4.3029079394225740e+08  3.5599417231069189e+08  5.2056631554022366e+08  2.9401467518457836e+08  5.2247015239270106e+07  0.0000000000000000e+00  </DataArray> 
</PointData> 
</Piece>
</UnstructuredGrid>
</VTKFile>