<?xml version="1.0"?>
<VTKFile type="UnstructuredGrid"  version="0.1"  >
<UnstructuredGrid>
<Piece  NumberOfPoints="101" NumberOfCells="100">
<Points>
<DataArray  type="Float64"  NumberOfComponents="3"  format="ascii">0 0 0  1e-07 0 0  2e-07 0 0  3e-07 0 0  4e-07 0 0  5e-07 0 0  6.000000000000001e-07 0 0  7.000000000000001e-07 0 0  8.000000000000001e-07 0 0  9.000000000000001e-07 0 0  1e-06 0 0  1.1e-06 0 0  1.2e-06 0 0  1.3e-06 0 0  1.4e-06 0 0  1.5e-06 0 0  1.6e-06 0 0  1.7e-06 0 0  1.8e-06 0 0  1.9e-06 0 0  2e-06 0 0  2.1e-06 0 0  2.2e-06 0 0  2.3e-06 0 0  2.4e-06 0 0  2.5e-06 0 0  2.600000000000001e-06 0 0  2.7e-06 0 0  2.8e-06 0 0  2.9e-06 0 0  3e-06 0 0  3.1e-06 0 0  3.2e-06 0 0  3.300000000000001e-06 0 0  3.4e-06 0 0  3.5e-06 0 0  3.6e-06 0 0  3.700000000000001e-06 0 0  3.8e-06 0 0  3.900000000000001e-06 0 0  4e-06 0 0  4.100000000000001e-06 0 0  4.2e-06 0 0  4.3e-06 0 0  4.4e-06 0 0  4.5e-06 0 0  4.6e-06 0 0  4.700000000000001e-06 0 0  4.800000000000001e-06 0 0  4.900000000000001e-06 0 0  5e-06 0 0  5.1e-06 0 0  5.200000000000001e-06 0 0  5.300000000000001e-06 0 0  5.4e-06 0 0  5.500000000000001e-06 0 0  5.600000000000001e-06 0 0  5.7e-06 0 0  5.8e-06 0 0  5.9e-06 0 0  6e-06 0 0  6.100000000000001e-06 0 0  6.2e-06 0 0  6.300000000000001e-06 0 0  6.400000000000001e-06 0 0  6.5e-06 0 0  6.600000000000001e-06 0 0  6.7e-06 0 0  6.8e-06 0 0  6.900000000000001e-06 0 0  7.000000000000001e-06 0 0  7.1e-06 0 0  7.200000000000001e-06 0 0  7.3e-06 0 0  7.400000000000001e-06 0 0  7.5e-06 0 0  7.6e-06 0 0  7.700000000000001e-06 0 0  7.800000000000002e-06 0 0  7.900000000000001e-06 0 0  8e-06 0 0  8.1e-06 0 0  8.200000000000001e-06 0 0  8.300000000000002e-06 0 0  8.400000000000001e-06 0 0  8.5e-06 0 0  8.600000000000001e-06 0 0  8.700000000000001e-06 0 0  8.8e-06 0 0  8.900000000000001e-06 0 0  9e-06 0 0  9.100000000000001e-06 0 0  9.2e-06 0 0  9.300000000000001e-06 0 0  9.400000000000001e-06 0 0  9.500000000000001e-06 0 0  9.600000000000001e-06 0 0  9.7e-06 0 0  9.800000000000001e-06 0 0  9.9e-06 0 0  1e-05 0 0  </DataArray>
</Points>
<Cells>
<DataArray  type="UInt32"  Name="connectivity"  format="ascii">0 1  1 2  2 3  3 4  4 5  5 6  6 7  7 8  8 9  9 10  10 11  11 12  12 13  13 14  14 15  15 16  16 17  17 18  18 19  19 20  20 21  21 22  22 23  23 24  24 25  25 26  26 27  27 28  28 29  29 30  30 31  31 32  32 33  33 34  34 35  35 36  36 37  37 38  38 39  39 40  40 41  41 42  42 43  43 44  44 45  45 46  46 47  47 48  48 49  49 50  50 51  51 52  52 53  53 54  54 55  55 56  56 57  57 58  58 59  59 60  60 61  61 62  62 63  63 64  64 65  65 66  66 67  67 68  68 69  69 70  70 71  71 72  72 73  73 74  74 75  75 76  76 77  77 78  78 79  79 80  80 81  81 82  82 83  83 84  84 85  85 86  86 87  87 88  88 89  89 90  90 91  91 92  92 93  93 94  94 95  95 96  96 97  97 98  98 99  99 100  </DataArray>
<DataArray  type="UInt32"  Name="offsets"  format="ascii">2 4 6 8 10 12 14 16 18 20 22 24 26 28 30 32 34 36 38 40 42 44 46 48 50 52 54 56 58 60 62 64 66 68 70 72 74 76 78 80 82 84 86 88 90 92 94 96 98 100 102 104 106 108 110 112 114 116 118 120 122 124 126 128 130 132 134 136 138 140 142 144 146 148 150 152 154 156 158 160 162 164 166 168 170 172 174 176 178 180 182 184 186 188 190 192 194 196 198 200 </DataArray>
<DataArray  type="UInt8"  Name="types"  format="ascii">3 3 3 3 3 3 3 3 3 3 3 3 3 3 3 3 3 3 3 3 3 3 3 3 3 3 3 3 3 3 3 3 3 3 3 3 3 3 3 3 3 3 3 3 3 3 3 3 3 3 3 3 3 3 3 3 3 3 3 3 3 3 3 3 3 3 3 3 3 3 3 3 3 3 3 3 3 3 3 3 3 3 3 3 3 3 3 3 3 3 3 3 3 3 3 3 3 3 3 3 </DataArray>
</Cells>
<PointData  Scalars="f_38"> 
<DataArray  type="Float64"  Name="f_38"  format="ascii">0.0000000000000000e+00  7.7518006599897317e-05  1.4708883130169287e-04  2.0884593542305849e-04  2.6370976876395516e-04  3.1244285049250939e-04  3.5573075090604536e-04  3.9418140290242449e-04  4.2833516944454722e-04  4.5867205437552576e-04  4.8561847216645827e-04  5.0955320730698792e-04  5.3081272836225525e-04  5.4969590904656415e-04  5.6646822454133982e-04  5.8136548003730692e-04  5.9459712341888133e-04  6.0634918819906175e-04  6.1678690782069473e-04  6.2605703790184352e-04  6.3428991895804585e-04  6.4160130852250203e-04  6.4809400836793513e-04  6.5385930966963793e-04  6.5897827640086450e-04  6.6352288498517384e-04  6.6755703621485093e-04  6.7113745365254298e-04  6.7431448114002774e-04  6.7713279062152701e-04  6.7963201022949130e-04  6.8184728146076601e-04  6.8380975327485966e-04  6.8554702005975562e-04  6.8708350962192312e-04  6.8844082665484713e-04  6.8963805651466655e-04  6.9069203357360193e-04  6.9161757792395040e-04  6.9242770376052687e-04  6.9313380237130055e-04  6.9374580230901616e-04  6.9427230899578589e-04  6.9472072572349011e-04  6.9509735775126957e-04  6.9540750096373706e-04  6.9565551633647346e-04  6.9584489125582060e-04  6.9597828855515252e-04  6.9605758395710102e-04  6.9608389244819456e-04  6.9605758395674812e-04  6.9597828855444876e-04  6.9584489125476925e-04  6.9565551633507820e-04  6.9540750096200321e-04  6.9509735774920460e-04  6.9472072572110194e-04  6.9427230899308417e-04  6.9374580230601140e-04  6.9313380236800403e-04  6.9242770375695149e-04  6.9161757792011048e-04  6.9069203356951199e-04  6.8963805651034297e-04  6.8844082665030682e-04  6.8708350961718407e-04  6.8554702005483670e-04  6.8380975326977984e-04  6.8184728145554547e-04  6.7963201022415074e-04  6.7713279061608746e-04  6.7431448113451056e-04  6.7113745364697018e-04  6.6755703620924452e-04  6.6352288497955605e-04  6.5897827639525722e-04  6.5385930966406329e-04  6.4809400836241514e-04  6.4160130851705858e-04  6.3428991895270051e-04  6.2605703789661712e-04  6.1678690781560787e-04  6.0634918819413416e-04  5.9459712341413252e-04  5.8136548003275565e-04  5.6646822453700388e-04  5.4969590904246077e-04  5.3081272835840091e-04  5.0955320730339737e-04  4.8561847216314631e-04  4.5867205437250501e-04  4.2833516944183042e-04  3.9418140290002201e-04  3.5573075090396673e-04  3.1244285049076382e-04  2.6370976876254900e-04  2.0884593542199847e-04  1.4708883130098272e-04  7.7518006599541848e-05  0.0000000000000000e+00  </DataArray> 
</PointData> 
</Piece>
</UnstructuredGrid>
</VTKFile>