<?xml version="1.0"?>
<VTKFile type="UnstructuredGrid"  version="0.1"  >
<UnstructuredGrid>
<Piece  NumberOfPoints="101" NumberOfCells="100">
<Points>
<DataArray  type="Float64"  NumberOfComponents="3"  format="ascii">0 0 0  1e-07 0 0  2e-07 0 0  3e-07 0 0  4e-07 0 0  5e-07 0 0  6.000000000000001e-07 0 0  7.000000000000001e-07 0 0  8.000000000000001e-07 0 0  9.000000000000001e-07 0 0  1e-06 0 0  1.1e-06 0 0  1.2e-06 0 0  1.3e-06 0 0  1.4e-06 0 0  1.5e-06 0 0  1.6e-06 0 0  1.7e-06 0 0  1.8e-06 0 0  1.9e-06 0 0  2e-06 0 0  2.1e-06 0 0  2.2e-06 0 0  2.3e-06 0 0  2.4e-06 0 0  2.5e-06 0 0  2.600000000000001e-06 0 0  2.7e-06 0 0  2.8e-06 0 0  2.9e-06 0 0  3e-06 0 0  3.1e-06 0 0  3.2e-06 0 0  3.300000000000001e-06 0 0  3.4e-06 0 0  3.5e-06 0 0  3.6e-06 0 0  3.700000000000001e-06 0 0  3.8e-06 0 0  3.900000000000001e-06 0 0  4e-06 0 0  4.100000000000001e-06 0 0  4.2e-06 0 0  4.3e-06 0 0  4.4e-06 0 0  4.5e-06 0 0  4.6e-06 0 0  4.700000000000001e-06 0 0  4.800000000000001e-06 0 0  4.900000000000001e-06 0 0  5e-06 0 0  5.1e-06 0 0  5.200000000000001e-06 0 0  5.300000000000001e-06 0 0  5.4e-06 0 0  5.500000000000001e-06 0 0  5.600000000000001e-06 0 0  5.7e-06 0 0  5.8e-06 0 0  5.9e-06 0 0  6e-06 0 0  6.100000000000001e-06 0 0  6.2e-06 0 0  6.300000000000001e-06 0 0  6.400000000000001e-06 0 0  6.5e-06 0 0  6.600000000000001e-06 0 0  6.7e-06 0 0  6.8e-06 0 0  6.900000000000001e-06 0 0  7.000000000000001e-06 0 0  7.1e-06 0 0  7.200000000000001e-06 0 0  7.3e-06 0 0  7.400000000000001e-06 0 0  7.5e-06 0 0  7.6e-06 0 0  7.700000000000001e-06 0 0  7.800000000000002e-06 0 0  7.900000000000001e-06 0 0  8e-06 0 0  8.1e-06 0 0  8.200000000000001e-06 0 0  8.300000000000002e-06 0 0  8.400000000000001e-06 0 0  8.5e-06 0 0  8.600000000000001e-06 0 0  8.700000000000001e-06 0 0  8.8e-06 0 0  8.900000000000001e-06 0 0  9e-06 0 0  9.100000000000001e-06 0 0  9.2e-06 0 0  9.300000000000001e-06 0 0  9.400000000000001e-06 0 0  9.500000000000001e-06 0 0  9.600000000000001e-06 0 0  9.7e-06 0 0  9.800000000000001e-06 0 0  9.9e-06 0 0  1e-05 0 0  </DataArray>
</Points>
<Cells>
<DataArray  type="UInt32"  Name="connectivity"  format="ascii">0 1  1 2  2 3  3 4  4 5  5 6  6 7  7 8  8 9  9 10  10 11  11 12  12 13  13 14  14 15  15 16  16 17  17 18  18 19  19 20  20 21  21 22  22 23  23 24  24 25  25 26  26 27  27 28  28 29  29 30  30 31  31 32  32 33  33 34  34 35  35 36  36 37  37 38  38 39  39 40  40 41  41 42  42 43  43 44  44 45  45 46  46 47  47 48  48 49  49 50  50 51  51 52  52 53  53 54  54 55  55 56  56 57  57 58  58 59  59 60  60 61  61 62  62 63  63 64  64 65  65 66  66 67  67 68  68 69  69 70  70 71  71 72  72 73  73 74  74 75  75 76  76 77  77 78  78 79  79 80  80 81  81 82  82 83  83 84  84 85  85 86  86 87  87 88  88 89  89 90  90 91  91 92  92 93  93 94  94 95  95 96  96 97  97 98  98 99  99 100  </DataArray>
<DataArray  type="UInt32"  Name="offsets"  format="ascii">2 4 6 8 10 12 14 16 18 20 22 24 26 28 30 32 34 36 38 40 42 44 46 48 50 52 54 56 58 60 62 64 66 68 70 72 74 76 78 80 82 84 86 88 90 92 94 96 98 100 102 104 106 108 110 112 114 116 118 120 122 124 126 128 130 132 134 136 138 140 142 144 146 148 150 152 154 156 158 160 162 164 166 168 170 172 174 176 178 180 182 184 186 188 190 192 194 196 198 200 </DataArray>
<DataArray  type="UInt8"  Name="types"  format="ascii">3 3 3 3 3 3 3 3 3 3 3 3 3 3 3 3 3 3 3 3 3 3 3 3 3 3 3 3 3 3 3 3 3 3 3 3 3 3 3 3 3 3 3 3 3 3 3 3 3 3 3 3 3 3 3 3 3 3 3 3 3 3 3 3 3 3 3 3 3 3 3 3 3 3 3 3 3 3 3 3 3 3 3 3 3 3 3 3 3 3 3 3 3 3 3 3 3 3 3 3 </DataArray>
</Cells>
<PointData  Scalars="f_44"> 
<DataArray  type="Float64"  Name="f_44"  format="ascii">0.0000000000000000e+00  2.8710091577436420e-04  3.0549444425383821e-04  3.2841142141776068e-04  3.3612082859492339e-04  3.4168255722103879e-04  3.4481624653743078e-04  3.4690454854381425e-04  3.4825595003581239e-04  3.4916345848725954e-04  3.4977338928260864e-04  3.5018705621514085e-04  3.5046810524018624e-04  3.5065942404918522e-04  3.5078967240269315e-04  3.5087831368277170e-04  3.5093858321057827e-04  3.5097951425947551e-04  3.5100727440948707e-04  3.5102607497759975e-04  3.5103878908452447e-04  3.5104737464934752e-04  3.5105316402166413e-04  3.5105706246659342e-04  3.5105968408649717e-04  3.5106144480270379e-04  3.5106262586797536e-04  3.5106341717844032e-04  3.5106394675833355e-04  3.5106430079642650e-04  3.5106453723802587e-04  3.5106469498958921e-04  3.5106480014190564e-04  3.5106487017090218e-04  3.5106491676901845e-04  3.5106494775082140e-04  3.5106496833380198e-04  3.5106498199809113e-04  3.5106499106282263e-04  3.5106499707206955e-04  3.5106500105298372e-04  3.5106500368826526e-04  3.5106500543126965e-04  3.5106500658275232e-04  3.5106500734196722e-04  3.5106500784064330e-04  3.5106500816552350e-04  3.5106500837324818e-04  3.5106500850010791e-04  3.5106500856830190e-04  3.5106500858977799e-04  3.5106500856830190e-04  3.5106500850010786e-04  3.5106500837324818e-04  3.5106500816552339e-04  3.5106500784064346e-04  3.5106500734196716e-04  3.5106500658275232e-04  3.5106500543126976e-04  3.5106500368826499e-04  3.5106500105298356e-04  3.5106499707206960e-04  3.5106499106282246e-04  3.5106498199809119e-04  3.5106496833380170e-04  3.5106494775082140e-04  3.5106491676901855e-04  3.5106487017090213e-04  3.5106480014190564e-04  3.5106469498958931e-04  3.5106453723802598e-04  3.5106430079642645e-04  3.5106394675833350e-04  3.5106341717844038e-04  3.5106262586797531e-04  3.5106144480270384e-04  3.5105968408649711e-04  3.5105706246659347e-04  3.5105316402166429e-04  3.5104737464934746e-04  3.5103878908452458e-04  3.5102607497759975e-04  3.5100727440948707e-04  3.5097951425947557e-04  3.5093858321057816e-04  3.5087831368277187e-04  3.5078967240269321e-04  3.5065942404918527e-04  3.5046810524018635e-04  3.5018705621514085e-04  3.4977338928260870e-04  3.4916345848725960e-04  3.4825595003581218e-04  3.4690454854381431e-04  3.4481624653743067e-04  3.4168255722103895e-04  3.3612082859492350e-04  3.2841142141776068e-04  3.0549444425383794e-04  2.8710091577436513e-04  0.0000000000000000e+00  </DataArray> 
</PointData> 
</Piece>
</UnstructuredGrid>
</VTKFile>