<?xml version="1.0"?>
<VTKFile type="UnstructuredGrid"  version="0.1"  >
<UnstructuredGrid>
<Piece  NumberOfPoints="101" NumberOfCells="100">
<Points>
<DataArray  type="Float64"  NumberOfComponents="3"  format="ascii">0 0 0  1e-07 0 0  2e-07 0 0  3e-07 0 0  4e-07 0 0  5e-07 0 0  6.000000000000001e-07 0 0  7.000000000000001e-07 0 0  8.000000000000001e-07 0 0  9.000000000000001e-07 0 0  1e-06 0 0  1.1e-06 0 0  1.2e-06 0 0  1.3e-06 0 0  1.4e-06 0 0  1.5e-06 0 0  1.6e-06 0 0  1.7e-06 0 0  1.8e-06 0 0  1.9e-06 0 0  2e-06 0 0  2.1e-06 0 0  2.2e-06 0 0  2.3e-06 0 0  2.4e-06 0 0  2.5e-06 0 0  2.600000000000001e-06 0 0  2.7e-06 0 0  2.8e-06 0 0  2.9e-06 0 0  3e-06 0 0  3.1e-06 0 0  3.2e-06 0 0  3.300000000000001e-06 0 0  3.4e-06 0 0  3.5e-06 0 0  3.6e-06 0 0  3.700000000000001e-06 0 0  3.8e-06 0 0  3.900000000000001e-06 0 0  4e-06 0 0  4.100000000000001e-06 0 0  4.2e-06 0 0  4.3e-06 0 0  4.4e-06 0 0  4.5e-06 0 0  4.6e-06 0 0  4.700000000000001e-06 0 0  4.800000000000001e-06 0 0  4.900000000000001e-06 0 0  5e-06 0 0  5.1e-06 0 0  5.200000000000001e-06 0 0  5.300000000000001e-06 0 0  5.4e-06 0 0  5.500000000000001e-06 0 0  5.600000000000001e-06 0 0  5.7e-06 0 0  5.8e-06 0 0  5.9e-06 0 0  6e-06 0 0  6.100000000000001e-06 0 0  6.2e-06 0 0  6.300000000000001e-06 0 0  6.400000000000001e-06 0 0  6.5e-06 0 0  6.600000000000001e-06 0 0  6.7e-06 0 0  6.8e-06 0 0  6.900000000000001e-06 0 0  7.000000000000001e-06 0 0  7.1e-06 0 0  7.200000000000001e-06 0 0  7.3e-06 0 0  7.400000000000001e-06 0 0  7.5e-06 0 0  7.6e-06 0 0  7.700000000000001e-06 0 0  7.800000000000002e-06 0 0  7.900000000000001e-06 0 0  8e-06 0 0  8.1e-06 0 0  8.200000000000001e-06 0 0  8.300000000000002e-06 0 0  8.400000000000001e-06 0 0  8.5e-06 0 0  8.600000000000001e-06 0 0  8.700000000000001e-06 0 0  8.8e-06 0 0  8.900000000000001e-06 0 0  9e-06 0 0  9.100000000000001e-06 0 0  9.2e-06 0 0  9.300000000000001e-06 0 0  9.400000000000001e-06 0 0  9.500000000000001e-06 0 0  9.600000000000001e-06 0 0  9.7e-06 0 0  9.800000000000001e-06 0 0  9.9e-06 0 0  1e-05 0 0  </DataArray>
</Points>
<Cells>
<DataArray  type="UInt32"  Name="connectivity"  format="ascii">0 1  1 2  2 3  3 4  4 5  5 6  6 7  7 8  8 9  9 10  10 11  11 12  12 13  13 14  14 15  15 16  16 17  17 18  18 19  19 20  20 21  21 22  22 23  23 24  24 25  25 26  26 27  27 28  28 29  29 30  30 31  31 32  32 33  33 34  34 35  35 36  36 37  37 38  38 39  39 40  40 41  41 42  42 43  43 44  44 45  45 46  46 47  47 48  48 49  49 50  50 51  51 52  52 53  53 54  54 55  55 56  56 57  57 58  58 59  59 60  60 61  61 62  62 63  63 64  64 65  65 66  66 67  67 68  68 69  69 70  70 71  71 72  72 73  73 74  74 75  75 76  76 77  77 78  78 79  79 80  80 81  81 82  82 83  83 84  84 85  85 86  86 87  87 88  88 89  89 90  90 91  91 92  92 93  93 94  94 95  95 96  96 97  97 98  98 99  99 100  </DataArray>
<DataArray  type="UInt32"  Name="offsets"  format="ascii">2 4 6 8 10 12 14 16 18 20 22 24 26 28 30 32 34 36 38 40 42 44 46 48 50 52 54 56 58 60 62 64 66 68 70 72 74 76 78 80 82 84 86 88 90 92 94 96 98 100 102 104 106 108 110 112 114 116 118 120 122 124 126 128 130 132 134 136 138 140 142 144 146 148 150 152 154 156 158 160 162 164 166 168 170 172 174 176 178 180 182 184 186 188 190 192 194 196 198 200 </DataArray>
<DataArray  type="UInt8"  Name="types"  format="ascii">3 3 3 3 3 3 3 3 3 3 3 3 3 3 3 3 3 3 3 3 3 3 3 3 3 3 3 3 3 3 3 3 3 3 3 3 3 3 3 3 3 3 3 3 3 3 3 3 3 3 3 3 3 3 3 3 3 3 3 3 3 3 3 3 3 3 3 3 3 3 3 3 3 3 3 3 3 3 3 3 3 3 3 3 3 3 3 3 3 3 3 3 3 3 3 3 3 3 3 3 </DataArray>
</Cells>
<PointData  Scalars="f_38"> 
<DataArray  type="Float64"  Name="f_38"  format="ascii">0.0000000000000000e+00  2.3656276128141511e-04  3.9770566609444543e-04  5.0254639873863974e-04  5.7103522362899110e-04  6.1574336879202164e-04  6.4493235535888042e-04  6.6398842684844939e-04  6.7642929604061410e-04  6.8455135982777189e-04  6.8985387514005237e-04  6.9331563659145599e-04  6.9557565614278402e-04  6.9705111513161493e-04  6.9801437179188206e-04  6.9864323596435817e-04  6.9905379125763910e-04  6.9932182312962526e-04  6.9949680828632532e-04  6.9961104770219034e-04  6.9968562913654171e-04  6.9973431977683590e-04  6.9976610755968630e-04  6.9978686027784645e-04  6.9980040873173161e-04  6.9980925386714803e-04  6.9981502843161894e-04  6.9981879836765893e-04  6.9982125957798735e-04  6.9982286638409566e-04  6.9982391539068320e-04  6.9982460023672224e-04  6.9982504733980151e-04  6.9982533923189177e-04  6.9982552979414568e-04  6.9982565420296714e-04  6.9982573542331800e-04  6.9982578844788332e-04  6.9982582306461153e-04  6.9982584566349816e-04  6.9982586041613325e-04  6.9982587004574557e-04  6.9982587632989185e-04  6.9982588042857960e-04  6.9982588309839709e-04  6.9982588483217308e-04  6.9982588594995018e-04  6.9982588665806181e-04  6.9982588708722025e-04  6.9982588731664524e-04  6.9982588738868711e-04  6.9982588731664404e-04  6.9982588708721787e-04  6.9982588665805801e-04  6.9982588594994497e-04  6.9982588483216625e-04  6.9982588309838863e-04  6.9982588042856941e-04  6.9982587632987970e-04  6.9982587004573148e-04  6.9982586041611710e-04  6.9982584566348005e-04  6.9982582306459115e-04  6.9982578844786098e-04  6.9982573542329361e-04  6.9982565420294047e-04  6.9982552979411673e-04  6.9982533923186022e-04  6.9982504733976780e-04  6.9982460023668624e-04  6.9982391539064449e-04  6.9982286638405435e-04  6.9982125957794344e-04  6.9981879836761263e-04  6.9981502843157036e-04  6.9980925386709718e-04  6.9980040873167870e-04  6.9978686027779159e-04  6.9976610755962971e-04  6.9973431977677790e-04  6.9968562913648273e-04  6.9961104770213049e-04  6.9949680828626504e-04  6.9932182312956498e-04  6.9905379125757925e-04  6.9864323596429908e-04  6.9801437179182427e-04  6.9705111513155876e-04  6.9557565614273014e-04  6.9331563659140460e-04  6.8985387514000390e-04  6.8455135982772668e-04  6.7642929604057290e-04  6.6398842684841242e-04  6.4493235535884779e-04  6.1574336879199410e-04  5.7103522362896854e-04  5.0254639873862327e-04  3.9770566609443361e-04  2.3656276128141080e-04  0.0000000000000000e+00  </DataArray> 
</PointData> 
</Piece>
</UnstructuredGrid>
</VTKFile>