<?xml version="1.0"?>
<VTKFile type="UnstructuredGrid"  version="0.1"  >
<UnstructuredGrid>
<Piece  NumberOfPoints="101" NumberOfCells="100">
<Points>
<DataArray  type="Float64"  NumberOfComponents="3"  format="ascii">0 0 0  1e-07 0 0  2e-07 0 0  3e-07 0 0  4e-07 0 0  5e-07 0 0  6.000000000000001e-07 0 0  7.000000000000001e-07 0 0  8.000000000000001e-07 0 0  9.000000000000001e-07 0 0  1e-06 0 0  1.1e-06 0 0  1.2e-06 0 0  1.3e-06 0 0  1.4e-06 0 0  1.5e-06 0 0  1.6e-06 0 0  1.7e-06 0 0  1.8e-06 0 0  1.9e-06 0 0  2e-06 0 0  2.1e-06 0 0  2.2e-06 0 0  2.3e-06 0 0  2.4e-06 0 0  2.5e-06 0 0  2.600000000000001e-06 0 0  2.7e-06 0 0  2.8e-06 0 0  2.9e-06 0 0  3e-06 0 0  3.1e-06 0 0  3.2e-06 0 0  3.300000000000001e-06 0 0  3.4e-06 0 0  3.5e-06 0 0  3.6e-06 0 0  3.700000000000001e-06 0 0  3.8e-06 0 0  3.900000000000001e-06 0 0  4e-06 0 0  4.100000000000001e-06 0 0  4.2e-06 0 0  4.3e-06 0 0  4.4e-06 0 0  4.5e-06 0 0  4.6e-06 0 0  4.700000000000001e-06 0 0  4.800000000000001e-06 0 0  4.900000000000001e-06 0 0  5e-06 0 0  5.1e-06 0 0  5.200000000000001e-06 0 0  5.300000000000001e-06 0 0  5.4e-06 0 0  5.500000000000001e-06 0 0  5.600000000000001e-06 0 0  5.7e-06 0 0  5.8e-06 0 0  5.9e-06 0 0  6e-06 0 0  6.100000000000001e-06 0 0  6.2e-06 0 0  6.300000000000001e-06 0 0  6.400000000000001e-06 0 0  6.5e-06 0 0  6.600000000000001e-06 0 0  6.7e-06 0 0  6.8e-06 0 0  6.900000000000001e-06 0 0  7.000000000000001e-06 0 0  7.1e-06 0 0  7.200000000000001e-06 0 0  7.3e-06 0 0  7.400000000000001e-06 0 0  7.5e-06 0 0  7.6e-06 0 0  7.700000000000001e-06 0 0  7.800000000000002e-06 0 0  7.900000000000001e-06 0 0  8e-06 0 0  8.1e-06 0 0  8.200000000000001e-06 0 0  8.300000000000002e-06 0 0  8.400000000000001e-06 0 0  8.5e-06 0 0  8.600000000000001e-06 0 0  8.700000000000001e-06 0 0  8.8e-06 0 0  8.900000000000001e-06 0 0  9e-06 0 0  9.100000000000001e-06 0 0  9.2e-06 0 0  9.300000000000001e-06 0 0  9.400000000000001e-06 0 0  9.500000000000001e-06 0 0  9.600000000000001e-06 0 0  9.7e-06 0 0  9.800000000000001e-06 0 0  9.9e-06 0 0  1e-05 0 0  </DataArray>
</Points>
<Cells>
<DataArray  type="UInt32"  Name="connectivity"  format="ascii">0 1  1 2  2 3  3 4  4 5  5 6  6 7  7 8  8 9  9 10  10 11  11 12  12 13  13 14  14 15  15 16  16 17  17 18  18 19  19 20  20 21  21 22  22 23  23 24  24 25  25 26  26 27  27 28  28 29  29 30  30 31  31 32  32 33  33 34  34 35  35 36  36 37  37 38  38 39  39 40  40 41  41 42  42 43  43 44  44 45  45 46  46 47  47 48  48 49  49 50  50 51  51 52  52 53  53 54  54 55  55 56  56 57  57 58  58 59  59 60  60 61  61 62  62 63  63 64  64 65  65 66  66 67  67 68  68 69  69 70  70 71  71 72  72 73  73 74  74 75  75 76  76 77  77 78  78 79  79 80  80 81  81 82  82 83  83 84  84 85  85 86  86 87  87 88  88 89  89 90  90 91  91 92  92 93  93 94  94 95  95 96  96 97  97 98  98 99  99 100  </DataArray>
<DataArray  type="UInt32"  Name="offsets"  format="ascii">2 4 6 8 10 12 14 16 18 20 22 24 26 28 30 32 34 36 38 40 42 44 46 48 50 52 54 56 58 60 62 64 66 68 70 72 74 76 78 80 82 84 86 88 90 92 94 96 98 100 102 104 106 108 110 112 114 116 118 120 122 124 126 128 130 132 134 136 138 140 142 144 146 148 150 152 154 156 158 160 162 164 166 168 170 172 174 176 178 180 182 184 186 188 190 192 194 196 198 200 </DataArray>
<DataArray  type="UInt8"  Name="types"  format="ascii">3 3 3 3 3 3 3 3 3 3 3 3 3 3 3 3 3 3 3 3 3 3 3 3 3 3 3 3 3 3 3 3 3 3 3 3 3 3 3 3 3 3 3 3 3 3 3 3 3 3 3 3 3 3 3 3 3 3 3 3 3 3 3 3 3 3 3 3 3 3 3 3 3 3 3 3 3 3 3 3 3 3 3 3 3 3 3 3 3 3 3 3 3 3 3 3 3 3 3 3 </DataArray>
</Cells>
<PointData  Scalars="f_34"> 
<DataArray  type="Float64"  Name="f_34"  format="ascii">0.0000000000000000e+00  2.0925455869212129e-87  4.1830260839842250e-87  6.2693784393252042e-87  8.3495436750578035e-87  1.0421468919235742e-86  1.2483109431789590e-86  1.4532430622438332e-86  1.6567410058584341e-86  1.8586039461210183e-86  2.0586326686807560e-86  2.2566297693382401e-86  2.4523998488596009e-86  2.6457497058119589e-86  2.8364885272299132e-86  3.0244280769249027e-86  3.2093828812515946e-86  3.3911704121479831e-86  3.5696112672685467e-86  3.7445293470327078e-86  3.9157520284138549e-86  4.0831103352974287e-86  4.2464391052399469e-86  4.4055771524643996e-86  4.5603674269311457e-86  4.7106571693273407e-86  4.8562980618219396e-86  4.9971463744374892e-86  5.1330631068942629e-86  5.2639141257867484e-86  5.3895702969571377e-86  5.5099076129351372e-86  5.6248073153183785e-86  5.7341560119726163e-86  5.8378457889360808e-86  5.9357743169175299e-86  6.0278449522828961e-86  6.1139668324308970e-86  6.1940549654634495e-86  6.2680303140624068e-86  6.3358198734898531e-86  6.3973567436349705e-86  6.4525801950363589e-86  6.5014357288146943e-86  6.5438751304565385e-86  6.5798565173962426e-86  6.6093443803489819e-86  6.6323096183541345e-86  6.6487295674944176e-86  6.6585880232624308e-86  6.6618752565525584e-86  6.6585880232624151e-86  6.6487295674943876e-86  6.6323096183540931e-86  6.6093443803489276e-86  6.5798565173961768e-86  6.5438751304564585e-86  6.5014357288146014e-86  6.4525801950362503e-86  6.3973567436348476e-86  6.3358198734897167e-86  6.2680303140622539e-86  6.1940549654632837e-86  6.1139668324307184e-86  6.0278449522827068e-86  5.9357743169173334e-86  5.8378457889358787e-86  5.7341560119724099e-86  5.6248073153181707e-86  5.5099076129349286e-86  5.3895702969569298e-86  5.2639141257865426e-86  5.1330631068940565e-86  4.9971463744372863e-86  4.8562980618217381e-86  4.7106571693271456e-86  4.5603674269309585e-86  4.4055771524642196e-86  4.2464391052397740e-86  4.0831103352972651e-86  3.9157520284137048e-86  3.7445293470325677e-86  3.5696112672684159e-86  3.3911704121478595e-86  3.2093828812514821e-86  3.0244280769248009e-86  2.8364885272298193e-86  2.6457497058118703e-86  2.4523998488595219e-86  2.2566297693381676e-86  2.0586326686806938e-86  1.8586039461209633e-86  1.6567410058583883e-86  1.4532430622437933e-86  1.2483109431789240e-86  1.0421468919235470e-86  8.3495436750575713e-87  6.2693784393250497e-87  4.1830260839841107e-87  2.0925455869211736e-87  0.0000000000000000e+00  </DataArray> 
</PointData> 
</Piece>
</UnstructuredGrid>
</VTKFile>