<?xml version="1.0"?>
<VTKFile type="UnstructuredGrid"  version="0.1"  >
<UnstructuredGrid>
<Piece  NumberOfPoints="101" NumberOfCells="100">
<Points>
<DataArray  type="Float64"  NumberOfComponents="3"  format="ascii">0 0 0  1e-07 0 0  2e-07 0 0  3e-07 0 0  4e-07 0 0  5e-07 0 0  6.000000000000001e-07 0 0  7.000000000000001e-07 0 0  8.000000000000001e-07 0 0  9.000000000000001e-07 0 0  1e-06 0 0  1.1e-06 0 0  1.2e-06 0 0  1.3e-06 0 0  1.4e-06 0 0  1.5e-06 0 0  1.6e-06 0 0  1.7e-06 0 0  1.8e-06 0 0  1.9e-06 0 0  2e-06 0 0  2.1e-06 0 0  2.2e-06 0 0  2.3e-06 0 0  2.4e-06 0 0  2.5e-06 0 0  2.600000000000001e-06 0 0  2.7e-06 0 0  2.8e-06 0 0  2.9e-06 0 0  3e-06 0 0  3.1e-06 0 0  3.2e-06 0 0  3.300000000000001e-06 0 0  3.4e-06 0 0  3.5e-06 0 0  3.6e-06 0 0  3.700000000000001e-06 0 0  3.8e-06 0 0  3.900000000000001e-06 0 0  4e-06 0 0  4.100000000000001e-06 0 0  4.2e-06 0 0  4.3e-06 0 0  4.4e-06 0 0  4.5e-06 0 0  4.6e-06 0 0  4.700000000000001e-06 0 0  4.800000000000001e-06 0 0  4.900000000000001e-06 0 0  5e-06 0 0  5.1e-06 0 0  5.200000000000001e-06 0 0  5.300000000000001e-06 0 0  5.4e-06 0 0  5.500000000000001e-06 0 0  5.600000000000001e-06 0 0  5.7e-06 0 0  5.8e-06 0 0  5.9e-06 0 0  6e-06 0 0  6.100000000000001e-06 0 0  6.2e-06 0 0  6.300000000000001e-06 0 0  6.400000000000001e-06 0 0  6.5e-06 0 0  6.600000000000001e-06 0 0  6.7e-06 0 0  6.8e-06 0 0  6.900000000000001e-06 0 0  7.000000000000001e-06 0 0  7.1e-06 0 0  7.200000000000001e-06 0 0  7.3e-06 0 0  7.400000000000001e-06 0 0  7.5e-06 0 0  7.6e-06 0 0  7.700000000000001e-06 0 0  7.800000000000002e-06 0 0  7.900000000000001e-06 0 0  8e-06 0 0  8.1e-06 0 0  8.200000000000001e-06 0 0  8.300000000000002e-06 0 0  8.400000000000001e-06 0 0  8.5e-06 0 0  8.600000000000001e-06 0 0  8.700000000000001e-06 0 0  8.8e-06 0 0  8.900000000000001e-06 0 0  9e-06 0 0  9.100000000000001e-06 0 0  9.2e-06 0 0  9.300000000000001e-06 0 0  9.400000000000001e-06 0 0  9.500000000000001e-06 0 0  9.600000000000001e-06 0 0  9.7e-06 0 0  9.800000000000001e-06 0 0  9.9e-06 0 0  1e-05 0 0  </DataArray>
</Points>
<Cells>
<DataArray  type="UInt32"  Name="connectivity"  format="ascii">0 1  1 2  2 3  3 4  4 5  5 6  6 7  7 8  8 9  9 10  10 11  11 12  12 13  13 14  14 15  15 16  16 17  17 18  18 19  19 20  20 21  21 22  22 23  23 24  24 25  25 26  26 27  27 28  28 29  29 30  30 31  31 32  32 33  33 34  34 35  35 36  36 37  37 38  38 39  39 40  40 41  41 42  42 43  43 44  44 45  45 46  46 47  47 48  48 49  49 50  50 51  51 52  52 53  53 54  54 55  55 56  56 57  57 58  58 59  59 60  60 61  61 62  62 63  63 64  64 65  65 66  66 67  67 68  68 69  69 70  70 71  71 72  72 73  73 74  74 75  75 76  76 77  77 78  78 79  79 80  80 81  81 82  82 83  83 84  84 85  85 86  86 87  87 88  88 89  89 90  90 91  91 92  92 93  93 94  94 95  95 96  96 97  97 98  98 99  99 100  </DataArray>
<DataArray  type="UInt32"  Name="offsets"  format="ascii">2 4 6 8 10 12 14 16 18 20 22 24 26 28 30 32 34 36 38 40 42 44 46 48 50 52 54 56 58 60 62 64 66 68 70 72 74 76 78 80 82 84 86 88 90 92 94 96 98 100 102 104 106 108 110 112 114 116 118 120 122 124 126 128 130 132 134 136 138 140 142 144 146 148 150 152 154 156 158 160 162 164 166 168 170 172 174 176 178 180 182 184 186 188 190 192 194 196 198 200 </DataArray>
<DataArray  type="UInt8"  Name="types"  format="ascii">3 3 3 3 3 3 3 3 3 3 3 3 3 3 3 3 3 3 3 3 3 3 3 3 3 3 3 3 3 3 3 3 3 3 3 3 3 3 3 3 3 3 3 3 3 3 3 3 3 3 3 3 3 3 3 3 3 3 3 3 3 3 3 3 3 3 3 3 3 3 3 3 3 3 3 3 3 3 3 3 3 3 3 3 3 3 3 3 3 3 3 3 3 3 3 3 3 3 3 3 </DataArray>
</Cells>
<PointData  Scalars="f_37"> 
<DataArray  type="Float64"  Name="f_37"  format="ascii">0.0000000000000000e+00  1.8836955944763545e+07  1.0600302157003507e+08  1.8768315676871046e+08  1.2834889245799112e+08  1.5513553628940371e+08  -4.7591008273309588e+08  1.2122545574079520e+08  4.5431850441876525e+08  1.0428423011857664e+07  7.6620606341797903e+07  4.6726260354171562e+08  -3.1368732430388331e+07  9.6486459864768311e+07  8.8675705029792681e+07  2.6884006870910430e+08  -1.0584618321595339e+08  6.4786378307716295e+07  6.3071240535132252e+07  1.1262848061981606e+08  1.5982485541877585e+07  6.5009191158172345e+08  -3.3213397763487115e+09  4.2606279166628098e+08  -5.3372087656456538e+07  7.5003492501257822e+07  6.3208423585103020e+07  7.9934222451894715e+07  8.8925343442605764e+07  1.0250801112950170e+08  1.1499895786461030e+08  1.5938769578656137e+08  1.3457582111908767e+08  8.3639364744670594e+08  -4.1424339901338261e+08  -2.7141796015434638e+06  -1.3586317188759139e+07  1.9930210632251922e+07  3.0049208517816011e+07  3.9605647923614025e+07  4.5939489647448145e+07  5.1005661077504098e+07  5.4992853654010363e+07  5.8236555132915117e+07  6.0878332426528320e+07  6.3020519712411329e+07  6.4722062434442431e+07  6.6019845777170785e+07  6.6935378309154987e+07  6.7480755912453398e+07  6.7661951662258327e+07  6.7480755912383020e+07  6.6935378309288949e+07  6.6019845777134292e+07  6.4722062434418812e+07  6.3020519712493494e+07  6.0878332426561415e+07  5.8236555132994659e+07  5.4992853653845713e+07  5.1005661077501722e+07  4.5939489647363633e+07  3.9605647923709780e+07  3.0049208517481383e+07  1.9930210632186398e+07  -1.3586317189076794e+07  -2.7141796019491567e+06  -4.1424339901327246e+08  8.3639364744280517e+08  1.3457582111890376e+08  1.5938769578679320e+08  1.1499895786441590e+08  1.0250801112967320e+08  8.8925343442531496e+07  7.9934222451911598e+07  6.3208423585015103e+07  7.5003492501616761e+07  -5.3372087658822276e+07  4.2606279167892772e+08  -3.3213397764409680e+09  6.5009191159378290e+08  1.5982485539476901e+07  1.1262848062012763e+08  6.3071240534898937e+07  6.4786378307881214e+07  -1.0584618321623446e+08  2.6884006870885122e+08  8.8675705030013859e+07  9.6486459864658624e+07  -3.1368732430347204e+07  4.6726260353988034e+08  7.6620606341796473e+07  1.0428423012057444e+07  4.5431850441754657e+08  1.2122545574134865e+08  -4.7591008273530167e+08  1.5513553628960672e+08  1.2834889245807275e+08  1.8768315676880237e+08  1.0600302157032600e+08  1.8836955944177371e+07  0.0000000000000000e+00  </DataArray> 
</PointData> 
</Piece>
</UnstructuredGrid>
</VTKFile>