<?xml version="1.0"?>
<VTKFile type="UnstructuredGrid"  version="0.1"  >
<UnstructuredGrid>
<Piece  NumberOfPoints="101" NumberOfCells="100">
<Points>
<DataArray  type="Float64"  NumberOfComponents="3"  format="ascii">0 0 0  1e-07 0 0  2e-07 0 0  3e-07 0 0  4e-07 0 0  5e-07 0 0  6.000000000000001e-07 0 0  7.000000000000001e-07 0 0  8.000000000000001e-07 0 0  9.000000000000001e-07 0 0  1e-06 0 0  1.1e-06 0 0  1.2e-06 0 0  1.3e-06 0 0  1.4e-06 0 0  1.5e-06 0 0  1.6e-06 0 0  1.7e-06 0 0  1.8e-06 0 0  1.9e-06 0 0  2e-06 0 0  2.1e-06 0 0  2.2e-06 0 0  2.3e-06 0 0  2.4e-06 0 0  2.5e-06 0 0  2.600000000000001e-06 0 0  2.7e-06 0 0  2.8e-06 0 0  2.9e-06 0 0  3e-06 0 0  3.1e-06 0 0  3.2e-06 0 0  3.300000000000001e-06 0 0  3.4e-06 0 0  3.5e-06 0 0  3.6e-06 0 0  3.700000000000001e-06 0 0  3.8e-06 0 0  3.900000000000001e-06 0 0  4e-06 0 0  4.100000000000001e-06 0 0  4.2e-06 0 0  4.3e-06 0 0  4.4e-06 0 0  4.5e-06 0 0  4.6e-06 0 0  4.700000000000001e-06 0 0  4.800000000000001e-06 0 0  4.900000000000001e-06 0 0  5e-06 0 0  5.1e-06 0 0  5.200000000000001e-06 0 0  5.300000000000001e-06 0 0  5.4e-06 0 0  5.500000000000001e-06 0 0  5.600000000000001e-06 0 0  5.7e-06 0 0  5.8e-06 0 0  5.9e-06 0 0  6e-06 0 0  6.100000000000001e-06 0 0  6.2e-06 0 0  6.300000000000001e-06 0 0  6.400000000000001e-06 0 0  6.5e-06 0 0  6.600000000000001e-06 0 0  6.7e-06 0 0  6.8e-06 0 0  6.900000000000001e-06 0 0  7.000000000000001e-06 0 0  7.1e-06 0 0  7.200000000000001e-06 0 0  7.3e-06 0 0  7.400000000000001e-06 0 0  7.5e-06 0 0  7.6e-06 0 0  7.700000000000001e-06 0 0  7.800000000000002e-06 0 0  7.900000000000001e-06 0 0  8e-06 0 0  8.1e-06 0 0  8.200000000000001e-06 0 0  8.300000000000002e-06 0 0  8.400000000000001e-06 0 0  8.5e-06 0 0  8.600000000000001e-06 0 0  8.700000000000001e-06 0 0  8.8e-06 0 0  8.900000000000001e-06 0 0  9e-06 0 0  9.100000000000001e-06 0 0  9.2e-06 0 0  9.300000000000001e-06 0 0  9.400000000000001e-06 0 0  9.500000000000001e-06 0 0  9.600000000000001e-06 0 0  9.7e-06 0 0  9.800000000000001e-06 0 0  9.9e-06 0 0  1e-05 0 0  </DataArray>
</Points>
<Cells>
<DataArray  type="UInt32"  Name="connectivity"  format="ascii">0 1  1 2  2 3  3 4  4 5  5 6  6 7  7 8  8 9  9 10  10 11  11 12  12 13  13 14  14 15  15 16  16 17  17 18  18 19  19 20  20 21  21 22  22 23  23 24  24 25  25 26  26 27  27 28  28 29  29 30  30 31  31 32  32 33  33 34  34 35  35 36  36 37  37 38  38 39  39 40  40 41  41 42  42 43  43 44  44 45  45 46  46 47  47 48  48 49  49 50  50 51  51 52  52 53  53 54  54 55  55 56  56 57  57 58  58 59  59 60  60 61  61 62  62 63  63 64  64 65  65 66  66 67  67 68  68 69  69 70  70 71  71 72  72 73  73 74  74 75  75 76  76 77  77 78  78 79  79 80  80 81  81 82  82 83  83 84  84 85  85 86  86 87  87 88  88 89  89 90  90 91  91 92  92 93  93 94  94 95  95 96  96 97  97 98  98 99  99 100  </DataArray>
<DataArray  type="UInt32"  Name="offsets"  format="ascii">2 4 6 8 10 12 14 16 18 20 22 24 26 28 30 32 34 36 38 40 42 44 46 48 50 52 54 56 58 60 62 64 66 68 70 72 74 76 78 80 82 84 86 88 90 92 94 96 98 100 102 104 106 108 110 112 114 116 118 120 122 124 126 128 130 132 134 136 138 140 142 144 146 148 150 152 154 156 158 160 162 164 166 168 170 172 174 176 178 180 182 184 186 188 190 192 194 196 198 200 </DataArray>
<DataArray  type="UInt8"  Name="types"  format="ascii">3 3 3 3 3 3 3 3 3 3 3 3 3 3 3 3 3 3 3 3 3 3 3 3 3 3 3 3 3 3 3 3 3 3 3 3 3 3 3 3 3 3 3 3 3 3 3 3 3 3 3 3 3 3 3 3 3 3 3 3 3 3 3 3 3 3 3 3 3 3 3 3 3 3 3 3 3 3 3 3 3 3 3 3 3 3 3 3 3 3 3 3 3 3 3 3 3 3 3 3 </DataArray>
</Cells>
<PointData  Scalars="f_41"> 
<DataArray  type="Float64"  Name="f_41"  format="ascii">0.0000000000000000e+00  1.1414093199053489e-03  9.6794416688640280e-04  1.0074424692010329e-03  9.9766273456345180e-04  1.0002113623827078e-03  9.9955520775711474e-04  9.9973617932961581e-04  9.9969198067525154e-04  9.9970604289026073e-04  9.9970357880820862e-04  9.9970498521151038e-04  9.9970503977033312e-04  9.9970527240220782e-04  9.9970534856853844e-04  9.9970540099762577e-04  9.9970541909871974e-04  9.9970542037249943e-04  9.9970540893456051e-04  9.9970538914824036e-04  9.9970536339806688e-04  9.9970533349067717e-04  9.9970530073041305e-04  9.9970526614991530e-04  9.9970523058653862e-04  9.9970519473736798e-04  9.9970515918571565e-04  9.9970512441710253e-04  9.9970509082897415e-04  9.9970505873793751e-04  9.9970502838616889e-04  9.9970499994780633e-04  9.9970497353565847e-04  9.9970494920822430e-04  9.9970492697694759e-04  9.9970490681348815e-04  9.9970488865685765e-04  9.9970487242021346e-04  9.9970485799719339e-04  9.9970484526766415e-04  9.9970483410280627e-04  9.9970482436952330e-04  9.9970481593413311e-04  9.9970480866539389e-04  9.9970480243687142e-04  9.9970479712873034e-04  9.9970479262899339e-04  9.9970478883434455e-04  9.9970478565054605e-04  9.9970478299254203e-04  9.9970478078429911e-04  9.9970477895846340e-04  9.9970477745587325e-04  9.9970477622497418e-04  9.9970477522117905e-04  9.9970477440620574e-04  9.9970477374740504e-04  9.9970477321712024e-04  9.9970477279206788e-04  9.9970477245276226e-04  9.9970477218299780e-04  9.9970477196936075e-04  9.9970477180081393e-04  9.9970477166831250e-04  9.9970477156447021e-04  9.9970477148326629e-04  9.9970477141977650e-04  9.9970477136992596e-04  9.9970477133024438e-04  9.9970477129758539e-04  9.9970477126878747e-04  9.9970477124017103e-04  9.9970477120677067e-04  9.9970477116105116e-04  9.9970477109074434e-04  9.9970477097509618e-04  9.9970477077834536e-04  9.9970477043844169e-04  9.9970476984690315e-04  9.9970476881532837e-04  9.9970476701036226e-04  9.9970476386416129e-04  9.9970475832744828e-04  9.9970474877462403e-04  9.9970473157949590e-04  9.9970470331846545e-04  9.9970464709811004e-04  9.9970457403540766e-04  9.9970435166771266e-04  9.9970431500650951e-04  9.9970293289926315e-04  9.9970543126542554e-04  9.9969139867158081e-04  9.9973566750062907e-04  9.9955465249192111e-04  1.0002111271946424e-03  9.9766173432753688e-04  1.0074436827805526e-03  9.6794022797165905e-04  1.1414136994469465e-03  0.0000000000000000e+00  </DataArray> 
</PointData> 
</Piece>
</UnstructuredGrid>
</VTKFile>