<?xml version="1.0"?>
<VTKFile type="UnstructuredGrid"  version="0.1"  >
<UnstructuredGrid>
<Piece  NumberOfPoints="101" NumberOfCells="100">
<Points>
<DataArray  type="Float64"  NumberOfComponents="3"  format="ascii">0 0 0  1e-07 0 0  2e-07 0 0  3e-07 0 0  4e-07 0 0  5e-07 0 0  6.000000000000001e-07 0 0  7.000000000000001e-07 0 0  8.000000000000001e-07 0 0  9.000000000000001e-07 0 0  1e-06 0 0  1.1e-06 0 0  1.2e-06 0 0  1.3e-06 0 0  1.4e-06 0 0  1.5e-06 0 0  1.6e-06 0 0  1.7e-06 0 0  1.8e-06 0 0  1.9e-06 0 0  2e-06 0 0  2.1e-06 0 0  2.2e-06 0 0  2.3e-06 0 0  2.4e-06 0 0  2.5e-06 0 0  2.600000000000001e-06 0 0  2.7e-06 0 0  2.8e-06 0 0  2.9e-06 0 0  3e-06 0 0  3.1e-06 0 0  3.2e-06 0 0  3.300000000000001e-06 0 0  3.4e-06 0 0  3.5e-06 0 0  3.6e-06 0 0  3.700000000000001e-06 0 0  3.8e-06 0 0  3.900000000000001e-06 0 0  4e-06 0 0  4.100000000000001e-06 0 0  4.2e-06 0 0  4.3e-06 0 0  4.4e-06 0 0  4.5e-06 0 0  4.6e-06 0 0  4.700000000000001e-06 0 0  4.800000000000001e-06 0 0  4.900000000000001e-06 0 0  5e-06 0 0  5.1e-06 0 0  5.200000000000001e-06 0 0  5.300000000000001e-06 0 0  5.4e-06 0 0  5.500000000000001e-06 0 0  5.600000000000001e-06 0 0  5.7e-06 0 0  5.8e-06 0 0  5.9e-06 0 0  6e-06 0 0  6.100000000000001e-06 0 0  6.2e-06 0 0  6.300000000000001e-06 0 0  6.400000000000001e-06 0 0  6.5e-06 0 0  6.600000000000001e-06 0 0  6.7e-06 0 0  6.8e-06 0 0  6.900000000000001e-06 0 0  7.000000000000001e-06 0 0  7.1e-06 0 0  7.200000000000001e-06 0 0  7.3e-06 0 0  7.400000000000001e-06 0 0  7.5e-06 0 0  7.6e-06 0 0  7.700000000000001e-06 0 0  7.800000000000002e-06 0 0  7.900000000000001e-06 0 0  8e-06 0 0  8.1e-06 0 0  8.200000000000001e-06 0 0  8.300000000000002e-06 0 0  8.400000000000001e-06 0 0  8.5e-06 0 0  8.600000000000001e-06 0 0  8.700000000000001e-06 0 0  8.8e-06 0 0  8.900000000000001e-06 0 0  9e-06 0 0  9.100000000000001e-06 0 0  9.2e-06 0 0  9.300000000000001e-06 0 0  9.400000000000001e-06 0 0  9.500000000000001e-06 0 0  9.600000000000001e-06 0 0  9.7e-06 0 0  9.800000000000001e-06 0 0  9.9e-06 0 0  1e-05 0 0  </DataArray>
</Points>
<Cells>
<DataArray  type="UInt32"  Name="connectivity"  format="ascii">0 1  1 2  2 3  3 4  4 5  5 6  6 7  7 8  8 9  9 10  10 11  11 12  12 13  13 14  14 15  15 16  16 17  17 18  18 19  19 20  20 21  21 22  22 23  23 24  24 25  25 26  26 27  27 28  28 29  29 30  30 31  31 32  32 33  33 34  34 35  35 36  36 37  37 38  38 39  39 40  40 41  41 42  42 43  43 44  44 45  45 46  46 47  47 48  48 49  49 50  50 51  51 52  52 53  53 54  54 55  55 56  56 57  57 58  58 59  59 60  60 61  61 62  62 63  63 64  64 65  65 66  66 67  67 68  68 69  69 70  70 71  71 72  72 73  73 74  74 75  75 76  76 77  77 78  78 79  79 80  80 81  81 82  82 83  83 84  84 85  85 86  86 87  87 88  88 89  89 90  90 91  91 92  92 93  93 94  94 95  95 96  96 97  97 98  98 99  99 100  </DataArray>
<DataArray  type="UInt32"  Name="offsets"  format="ascii">2 4 6 8 10 12 14 16 18 20 22 24 26 28 30 32 34 36 38 40 42 44 46 48 50 52 54 56 58 60 62 64 66 68 70 72 74 76 78 80 82 84 86 88 90 92 94 96 98 100 102 104 106 108 110 112 114 116 118 120 122 124 126 128 130 132 134 136 138 140 142 144 146 148 150 152 154 156 158 160 162 164 166 168 170 172 174 176 178 180 182 184 186 188 190 192 194 196 198 200 </DataArray>
<DataArray  type="UInt8"  Name="types"  format="ascii">3 3 3 3 3 3 3 3 3 3 3 3 3 3 3 3 3 3 3 3 3 3 3 3 3 3 3 3 3 3 3 3 3 3 3 3 3 3 3 3 3 3 3 3 3 3 3 3 3 3 3 3 3 3 3 3 3 3 3 3 3 3 3 3 3 3 3 3 3 3 3 3 3 3 3 3 3 3 3 3 3 3 3 3 3 3 3 3 3 3 3 3 3 3 3 3 3 3 3 3 </DataArray>
</Cells>
<PointData  Scalars="f_41"> 
<DataArray  type="Float64"  Name="f_41"  format="ascii">0.0000000000000000e+00  1.1356418594052737e-03  9.7246422157648983e-04  1.0062255463532644e-03  9.9851723699285414e-04  1.0003645297573473e-03  9.9990837290320493e-04  1.0000234064472442e-03  9.9999393025766432e-04  1.0000015819138176e-03  9.9999957437817252e-04  1.0000001062589489e-03  9.9999996420892202e-04  1.0000000023427315e-03  9.9999999181274359e-04  9.9999999438470273e-04  9.9999999326993256e-04  9.9999999304895091e-04  9.9999999244725752e-04  9.9999999179746848e-04  9.9999999098114340e-04  9.9999998999811030e-04  9.9999998880615014e-04  9.9999998736369981e-04  9.9999998561493895e-04  9.9999998349023208e-04  9.9999998090106752e-04  9.9999997773504191e-04  9.9999997384883589e-04  9.9999996905910803e-04  9.9999996313045766e-04  9.9999995575952199e-04  9.9999994655387012e-04  9.9999993500392726e-04  9.9999992044547408e-04  9.9999990200943752e-04  9.9999987855441466e-04  9.9999984857574559e-04  9.9999981008261048e-04  9.9999976043143994e-04  9.9999969609952622e-04  9.9999961237662370e-04  9.9999950294399277e-04  9.9999935929881911e-04  9.9999916996641757e-04  9.9999891942162021e-04  9.9999858661311246e-04  9.9999814294903172e-04  9.9999754955888004e-04  9.9999675359859364e-04  9.9999568332174819e-04  9.9999424162304593e-04  9.9999229781858674e-04  9.9998967765455005e-04  9.9998615209775281e-04  9.9998142661994254e-04  9.9997513478016029e-04  9.9996684317990949e-04  9.9995607895056069e-04  9.9994239380513366e-04  9.9992547536541677e-04  9.9990529942969950e-04  9.9988228225697095e-04  9.9985735350288825e-04  9.9983186704358912e-04  9.9980733459974973e-04  9.9978507940246702e-04  9.9976596855905838e-04  9.9975032912451365e-04  9.9973803594455421e-04  9.9972868216926972e-04  9.9972174470275375e-04  9.9971670037390524e-04  9.9971308824012848e-04  9.9971053210446141e-04  9.9970873991005681e-04  9.9970749252788964e-04  9.9970662943512614e-04  9.9970603502946799e-04  9.9970562705756086e-04  9.9970534744223821e-04  9.9970515529517129e-04  9.9970502158637921e-04  9.9970492537259552e-04  9.9970484975010678e-04  9.9970478220437627e-04  9.9970469964127517e-04  9.9970460895818674e-04  9.9970437484007643e-04  9.9970433035078527e-04  9.9970294307360499e-04  9.9970543795966358e-04  9.9969140321510370e-04  9.9973567028481731e-04  9.9955465495085217e-04  1.0002111275201353e-03  9.9766173766601611e-04  1.0074436785199893e-03  9.6794023797773033e-04  1.1414136884270554e-03  0.0000000000000000e+00  </DataArray> 
</PointData> 
</Piece>
</UnstructuredGrid>
</VTKFile>