<?xml version="1.0"?>
<VTKFile type="UnstructuredGrid"  version="0.1"  >
<UnstructuredGrid>
<Piece  NumberOfPoints="101" NumberOfCells="100">
<Points>
<DataArray  type="Float64"  NumberOfComponents="3"  format="ascii">0 0 0  1e-07 0 0  2e-07 0 0  3e-07 0 0  4e-07 0 0  5e-07 0 0  6.000000000000001e-07 0 0  7.000000000000001e-07 0 0  8.000000000000001e-07 0 0  9.000000000000001e-07 0 0  1e-06 0 0  1.1e-06 0 0  1.2e-06 0 0  1.3e-06 0 0  1.4e-06 0 0  1.5e-06 0 0  1.6e-06 0 0  1.7e-06 0 0  1.8e-06 0 0  1.9e-06 0 0  2e-06 0 0  2.1e-06 0 0  2.2e-06 0 0  2.3e-06 0 0  2.4e-06 0 0  2.5e-06 0 0  2.600000000000001e-06 0 0  2.7e-06 0 0  2.8e-06 0 0  2.9e-06 0 0  3e-06 0 0  3.1e-06 0 0  3.2e-06 0 0  3.300000000000001e-06 0 0  3.4e-06 0 0  3.5e-06 0 0  3.6e-06 0 0  3.700000000000001e-06 0 0  3.8e-06 0 0  3.900000000000001e-06 0 0  4e-06 0 0  4.100000000000001e-06 0 0  4.2e-06 0 0  4.3e-06 0 0  4.4e-06 0 0  4.5e-06 0 0  4.6e-06 0 0  4.700000000000001e-06 0 0  4.800000000000001e-06 0 0  4.900000000000001e-06 0 0  5e-06 0 0  5.1e-06 0 0  5.200000000000001e-06 0 0  5.300000000000001e-06 0 0  5.4e-06 0 0  5.500000000000001e-06 0 0  5.600000000000001e-06 0 0  5.7e-06 0 0  5.8e-06 0 0  5.9e-06 0 0  6e-06 0 0  6.100000000000001e-06 0 0  6.2e-06 0 0  6.300000000000001e-06 0 0  6.400000000000001e-06 0 0  6.5e-06 0 0  6.600000000000001e-06 0 0  6.7e-06 0 0  6.8e-06 0 0  6.900000000000001e-06 0 0  7.000000000000001e-06 0 0  7.1e-06 0 0  7.200000000000001e-06 0 0  7.3e-06 0 0  7.400000000000001e-06 0 0  7.5e-06 0 0  7.6e-06 0 0  7.700000000000001e-06 0 0  7.800000000000002e-06 0 0  7.900000000000001e-06 0 0  8e-06 0 0  8.1e-06 0 0  8.200000000000001e-06 0 0  8.300000000000002e-06 0 0  8.400000000000001e-06 0 0  8.5e-06 0 0  8.600000000000001e-06 0 0  8.700000000000001e-06 0 0  8.8e-06 0 0  8.900000000000001e-06 0 0  9e-06 0 0  9.100000000000001e-06 0 0  9.2e-06 0 0  9.300000000000001e-06 0 0  9.400000000000001e-06 0 0  9.500000000000001e-06 0 0  9.600000000000001e-06 0 0  9.7e-06 0 0  9.800000000000001e-06 0 0  9.9e-06 0 0  1e-05 0 0  </DataArray>
</Points>
<Cells>
<DataArray  type="UInt32"  Name="connectivity"  format="ascii">0 1  1 2  2 3  3 4  4 5  5 6  6 7  7 8  8 9  9 10  10 11  11 12  12 13  13 14  14 15  15 16  16 17  17 18  18 19  19 20  20 21  21 22  22 23  23 24  24 25  25 26  26 27  27 28  28 29  29 30  30 31  31 32  32 33  33 34  34 35  35 36  36 37  37 38  38 39  39 40  40 41  41 42  42 43  43 44  44 45  45 46  46 47  47 48  48 49  49 50  50 51  51 52  52 53  53 54  54 55  55 56  56 57  57 58  58 59  59 60  60 61  61 62  62 63  63 64  64 65  65 66  66 67  67 68  68 69  69 70  70 71  71 72  72 73  73 74  74 75  75 76  76 77  77 78  78 79  79 80  80 81  81 82  82 83  83 84  84 85  85 86  86 87  87 88  88 89  89 90  90 91  91 92  92 93  93 94  94 95  95 96  96 97  97 98  98 99  99 100  </DataArray>
<DataArray  type="UInt32"  Name="offsets"  format="ascii">2 4 6 8 10 12 14 16 18 20 22 24 26 28 30 32 34 36 38 40 42 44 46 48 50 52 54 56 58 60 62 64 66 68 70 72 74 76 78 80 82 84 86 88 90 92 94 96 98 100 102 104 106 108 110 112 114 116 118 120 122 124 126 128 130 132 134 136 138 140 142 144 146 148 150 152 154 156 158 160 162 164 166 168 170 172 174 176 178 180 182 184 186 188 190 192 194 196 198 200 </DataArray>
<DataArray  type="UInt8"  Name="types"  format="ascii">3 3 3 3 3 3 3 3 3 3 3 3 3 3 3 3 3 3 3 3 3 3 3 3 3 3 3 3 3 3 3 3 3 3 3 3 3 3 3 3 3 3 3 3 3 3 3 3 3 3 3 3 3 3 3 3 3 3 3 3 3 3 3 3 3 3 3 3 3 3 3 3 3 3 3 3 3 3 3 3 3 3 3 3 3 3 3 3 3 3 3 3 3 3 3 3 3 3 3 3 </DataArray>
</Cells>
<PointData  Scalars="f_44"> 
<DataArray  type="Float64"  Name="f_44"  format="ascii">0.0000000000000000e+00  4.5472050241749420e-04  3.8871910808771883e-04  4.0257946761535428e-04  3.9937751969844928e-04  4.0015145547672921e-04  3.9995994887202102e-04  4.0000842169928019e-04  3.9999622208720324e-04  3.9999948008370326e-04  3.9999873266572018e-04  3.9999900438865101e-04  3.9999899705194224e-04  3.9999905214949143e-04  3.9999908270113349e-04  3.9999911321502086e-04  3.9999913850811926e-04  3.9999916090539302e-04  3.9999918053429287e-04  3.9999919794236031e-04  3.9999921344622289e-04  3.9999922733263189e-04  3.9999923982610966e-04  3.9999925111294164e-04  3.9999926134634556e-04  3.9999927065385778e-04  3.9999927914209334e-04  3.9999928690071131e-04  3.9999929400545996e-04  3.9999930052061811e-04  3.9999930650094269e-04  3.9999931199324103e-04  3.9999931703764820e-04  3.9999932166867054e-04  3.9999932591604394e-04  3.9999932980544023e-04  3.9999933335905629e-04  3.9999933659610212e-04  3.9999933953320993e-04  3.9999934218477423e-04  3.9999934456324030e-04  3.9999934667934273e-04  3.9999934854230814e-04  3.9999935016002267e-04  3.9999935153917375e-04  3.9999935268536524e-04  3.9999935360321312e-04  3.9999935429642299e-04  3.9999935476784894e-04  3.9999935501954062e-04  3.9999935505277354e-04  3.9999935486806712e-04  3.9999935446519320e-04  3.9999935384316560e-04  3.9999935300022519e-04  3.9999935193380388e-04  3.9999935064048144e-04  3.9999934911592297e-04  3.9999934735480193e-04  3.9999934535070333e-04  3.9999934309600745e-04  3.9999934058174608e-04  3.9999933779743591e-04  3.9999933473087177e-04  3.9999933136788816e-04  3.9999932769206928e-04  3.9999932368440497e-04  3.9999931932288075e-04  3.9999931458198644e-04  3.9999930943212554e-04  3.9999930383890272e-04  3.9999929776226504e-04  3.9999929115545001e-04  3.9999928396370818e-04  3.9999927612272105e-04  3.9999926755664806e-04  3.9999925817567870e-04  3.9999924787297540e-04  3.9999923652069978e-04  3.9999922396523552e-04  3.9999921001978613e-04  3.9999919445918519e-04  3.9999917699586399e-04  3.9999915731220515e-04  3.9999913485930656e-04  3.9999910950844794e-04  3.9999907893141756e-04  3.9999904831301868e-04  3.9999899312583161e-04  3.9999900040199376e-04  3.9999872844056393e-04  3.9999947613843370e-04  3.9999621647389660e-04  4.0000842087147220e-04  3.9995993079288615e-04  4.0015149216428021e-04  3.9937738113118745e-04  4.0257984645965472e-04  3.8871811486928501e-04  4.5472211703579725e-04  0.0000000000000000e+00  </DataArray> 
</PointData> 
</Piece>
</UnstructuredGrid>
</VTKFile>