<?xml version="1.0"?>
<VTKFile type="UnstructuredGrid"  version="0.1"  >
<UnstructuredGrid>
<Piece  NumberOfPoints="101" NumberOfCells="100">
<Points>
<DataArray  type="Float64"  NumberOfComponents="3"  format="ascii">0 0 0  1e-07 0 0  2e-07 0 0  3e-07 0 0  4e-07 0 0  5e-07 0 0  6.000000000000001e-07 0 0  7.000000000000001e-07 0 0  8.000000000000001e-07 0 0  9.000000000000001e-07 0 0  1e-06 0 0  1.1e-06 0 0  1.2e-06 0 0  1.3e-06 0 0  1.4e-06 0 0  1.5e-06 0 0  1.6e-06 0 0  1.7e-06 0 0  1.8e-06 0 0  1.9e-06 0 0  2e-06 0 0  2.1e-06 0 0  2.2e-06 0 0  2.3e-06 0 0  2.4e-06 0 0  2.5e-06 0 0  2.600000000000001e-06 0 0  2.7e-06 0 0  2.8e-06 0 0  2.9e-06 0 0  3e-06 0 0  3.1e-06 0 0  3.2e-06 0 0  3.300000000000001e-06 0 0  3.4e-06 0 0  3.5e-06 0 0  3.6e-06 0 0  3.700000000000001e-06 0 0  3.8e-06 0 0  3.900000000000001e-06 0 0  4e-06 0 0  4.100000000000001e-06 0 0  4.2e-06 0 0  4.3e-06 0 0  4.4e-06 0 0  4.5e-06 0 0  4.6e-06 0 0  4.700000000000001e-06 0 0  4.800000000000001e-06 0 0  4.900000000000001e-06 0 0  5e-06 0 0  5.1e-06 0 0  5.200000000000001e-06 0 0  5.300000000000001e-06 0 0  5.4e-06 0 0  5.500000000000001e-06 0 0  5.600000000000001e-06 0 0  5.7e-06 0 0  5.8e-06 0 0  5.9e-06 0 0  6e-06 0 0  6.100000000000001e-06 0 0  6.2e-06 0 0  6.300000000000001e-06 0 0  6.400000000000001e-06 0 0  6.5e-06 0 0  6.600000000000001e-06 0 0  6.7e-06 0 0  6.8e-06 0 0  6.900000000000001e-06 0 0  7.000000000000001e-06 0 0  7.1e-06 0 0  7.200000000000001e-06 0 0  7.3e-06 0 0  7.400000000000001e-06 0 0  7.5e-06 0 0  7.6e-06 0 0  7.700000000000001e-06 0 0  7.800000000000002e-06 0 0  7.900000000000001e-06 0 0  8e-06 0 0  8.1e-06 0 0  8.200000000000001e-06 0 0  8.300000000000002e-06 0 0  8.400000000000001e-06 0 0  8.5e-06 0 0  8.600000000000001e-06 0 0  8.700000000000001e-06 0 0  8.8e-06 0 0  8.900000000000001e-06 0 0  9e-06 0 0  9.100000000000001e-06 0 0  9.2e-06 0 0  9.300000000000001e-06 0 0  9.400000000000001e-06 0 0  9.500000000000001e-06 0 0  9.600000000000001e-06 0 0  9.7e-06 0 0  9.800000000000001e-06 0 0  9.9e-06 0 0  1e-05 0 0  </DataArray>
</Points>
<Cells>
<DataArray  type="UInt32"  Name="connectivity"  format="ascii">0 1  1 2  2 3  3 4  4 5  5 6  6 7  7 8  8 9  9 10  10 11  11 12  12 13  13 14  14 15  15 16  16 17  17 18  18 19  19 20  20 21  21 22  22 23  23 24  24 25  25 26  26 27  27 28  28 29  29 30  30 31  31 32  32 33  33 34  34 35  35 36  36 37  37 38  38 39  39 40  40 41  41 42  42 43  43 44  44 45  45 46  46 47  47 48  48 49  49 50  50 51  51 52  52 53  53 54  54 55  55 56  56 57  57 58  58 59  59 60  60 61  61 62  62 63  63 64  64 65  65 66  66 67  67 68  68 69  69 70  70 71  71 72  72 73  73 74  74 75  75 76  76 77  77 78  78 79  79 80  80 81  81 82  82 83  83 84  84 85  85 86  86 87  87 88  88 89  89 90  90 91  91 92  92 93  93 94  94 95  95 96  96 97  97 98  98 99  99 100  </DataArray>
<DataArray  type="UInt32"  Name="offsets"  format="ascii">2 4 6 8 10 12 14 16 18 20 22 24 26 28 30 32 34 36 38 40 42 44 46 48 50 52 54 56 58 60 62 64 66 68 70 72 74 76 78 80 82 84 86 88 90 92 94 96 98 100 102 104 106 108 110 112 114 116 118 120 122 124 126 128 130 132 134 136 138 140 142 144 146 148 150 152 154 156 158 160 162 164 166 168 170 172 174 176 178 180 182 184 186 188 190 192 194 196 198 200 </DataArray>
<DataArray  type="UInt8"  Name="types"  format="ascii">3 3 3 3 3 3 3 3 3 3 3 3 3 3 3 3 3 3 3 3 3 3 3 3 3 3 3 3 3 3 3 3 3 3 3 3 3 3 3 3 3 3 3 3 3 3 3 3 3 3 3 3 3 3 3 3 3 3 3 3 3 3 3 3 3 3 3 3 3 3 3 3 3 3 3 3 3 3 3 3 3 3 3 3 3 3 3 3 3 3 3 3 3 3 3 3 3 3 3 3 </DataArray>
</Cells>
<PointData  Scalars="f_34"> 
<DataArray  type="Float64"  Name="f_34"  format="ascii">0.0000000000000000e+00  3.0139754848471342e-81  6.0249765397723944e-81  9.0300316702571337e-81  1.2026175249692265e-80  1.5010450446093685e-80  1.7979912140138460e-80  2.0931629831642020e-80  2.3862690531608048e-80  2.6770201636996930e-80  2.9651293785375712e-80  3.2503123686632419e-80  3.5322876928960089e-80  3.8107770756341488e-80  4.0855056814793301e-80  4.3562023864659705e-80  4.6226000456278572e-80  4.8844357566379773e-80  5.1414511192613722e-80  5.3933924903649723e-80  5.6400112342327490e-80  5.8810639679391455e-80  6.1163128015386398e-80  6.3455255728344119e-80  6.5684760764943831e-80  6.7849442872885780e-80  6.9947165772274668e-80  7.1975859263869961e-80  7.3933521272122644e-80  7.5818219820981891e-80  7.7628094940522431e-80  7.9361360502510156e-80  8.1016305983095087e-80  8.2591298150891861e-80  8.4084782678781937e-80  8.5495285677846906e-80  8.6821415151918708e-80  8.8061862371312050e-80  8.9215403164382355e-80  9.0280899125635579e-80  9.1257298739196818e-80  9.2143638416529693e-80  9.2939043447381693e-80  9.3642728863017861e-80  9.4254000210889885e-80  9.4772254239977143e-80  9.5196979496122478e-80  9.5527756826775761e-80  9.5764259794646883e-80  9.5906254999859863e-80  9.5953602310290472e-80  9.5906254999859639e-80  9.5764259794646433e-80  9.5527756826775146e-80  9.5196979496121669e-80  9.4772254239976169e-80  9.4254000210888732e-80  9.3642728863016498e-80  9.2939043447380135e-80  9.2143638416527910e-80  9.1257298739194855e-80  9.0280899125633377e-80  8.9215403164379988e-80  8.8061862371309488e-80  8.6821415151915996e-80  8.5495285677844089e-80  8.4084782678779031e-80  8.2591298150888895e-80  8.1016305983092106e-80  7.9361360502507160e-80  7.7628094940519435e-80  7.5818219820978910e-80  7.3933521272119663e-80  7.1975859263867055e-80  6.9947165772271792e-80  6.7849442872882994e-80  6.5684760764941149e-80  6.3455255728341564e-80  6.1163128015383964e-80  5.8810639679389133e-80  5.6400112342325347e-80  5.3933924903647723e-80  5.1414511192611849e-80  4.8844357566378013e-80  4.6226000456276969e-80  4.3562023864658252e-80  4.0855056814791945e-80  3.8107770756340222e-80  3.5322876928958958e-80  3.2503123686631374e-80  2.9651293785374820e-80  2.6770201636996133e-80  2.3862690531607392e-80  2.0931629831641447e-80  1.7979912140137954e-80  1.5010450446093293e-80  1.2026175249691934e-80  9.0300316702569109e-81  6.0249765397722315e-81  3.0139754848470780e-81  0.0000000000000000e+00  </DataArray> 
</PointData> 
</Piece>
</UnstructuredGrid>
</VTKFile>