<?xml version="1.0"?>
<VTKFile type="UnstructuredGrid"  version="0.1"  >
<UnstructuredGrid>
<Piece  NumberOfPoints="101" NumberOfCells="100">
<Points>
<DataArray  type="Float64"  NumberOfComponents="3"  format="ascii">0 0 0  1e-07 0 0  2e-07 0 0  3e-07 0 0  4e-07 0 0  5e-07 0 0  6.000000000000001e-07 0 0  7.000000000000001e-07 0 0  8.000000000000001e-07 0 0  9.000000000000001e-07 0 0  1e-06 0 0  1.1e-06 0 0  1.2e-06 0 0  1.3e-06 0 0  1.4e-06 0 0  1.5e-06 0 0  1.6e-06 0 0  1.7e-06 0 0  1.8e-06 0 0  1.9e-06 0 0  2e-06 0 0  2.1e-06 0 0  2.2e-06 0 0  2.3e-06 0 0  2.4e-06 0 0  2.5e-06 0 0  2.600000000000001e-06 0 0  2.7e-06 0 0  2.8e-06 0 0  2.9e-06 0 0  3e-06 0 0  3.1e-06 0 0  3.2e-06 0 0  3.300000000000001e-06 0 0  3.4e-06 0 0  3.5e-06 0 0  3.6e-06 0 0  3.700000000000001e-06 0 0  3.8e-06 0 0  3.900000000000001e-06 0 0  4e-06 0 0  4.100000000000001e-06 0 0  4.2e-06 0 0  4.3e-06 0 0  4.4e-06 0 0  4.5e-06 0 0  4.6e-06 0 0  4.700000000000001e-06 0 0  4.800000000000001e-06 0 0  4.900000000000001e-06 0 0  5e-06 0 0  5.1e-06 0 0  5.200000000000001e-06 0 0  5.300000000000001e-06 0 0  5.4e-06 0 0  5.500000000000001e-06 0 0  5.600000000000001e-06 0 0  5.7e-06 0 0  5.8e-06 0 0  5.9e-06 0 0  6e-06 0 0  6.100000000000001e-06 0 0  6.2e-06 0 0  6.300000000000001e-06 0 0  6.400000000000001e-06 0 0  6.5e-06 0 0  6.600000000000001e-06 0 0  6.7e-06 0 0  6.8e-06 0 0  6.900000000000001e-06 0 0  7.000000000000001e-06 0 0  7.1e-06 0 0  7.200000000000001e-06 0 0  7.3e-06 0 0  7.400000000000001e-06 0 0  7.5e-06 0 0  7.6e-06 0 0  7.700000000000001e-06 0 0  7.800000000000002e-06 0 0  7.900000000000001e-06 0 0  8e-06 0 0  8.1e-06 0 0  8.200000000000001e-06 0 0  8.300000000000002e-06 0 0  8.400000000000001e-06 0 0  8.5e-06 0 0  8.600000000000001e-06 0 0  8.700000000000001e-06 0 0  8.8e-06 0 0  8.900000000000001e-06 0 0  9e-06 0 0  9.100000000000001e-06 0 0  9.2e-06 0 0  9.300000000000001e-06 0 0  9.400000000000001e-06 0 0  9.500000000000001e-06 0 0  9.600000000000001e-06 0 0  9.7e-06 0 0  9.800000000000001e-06 0 0  9.9e-06 0 0  1e-05 0 0  </DataArray>
</Points>
<Cells>
<DataArray  type="UInt32"  Name="connectivity"  format="ascii">0 1  1 2  2 3  3 4  4 5  5 6  6 7  7 8  8 9  9 10  10 11  11 12  12 13  13 14  14 15  15 16  16 17  17 18  18 19  19 20  20 21  21 22  22 23  23 24  24 25  25 26  26 27  27 28  28 29  29 30  30 31  31 32  32 33  33 34  34 35  35 36  36 37  37 38  38 39  39 40  40 41  41 42  42 43  43 44  44 45  45 46  46 47  47 48  48 49  49 50  50 51  51 52  52 53  53 54  54 55  55 56  56 57  57 58  58 59  59 60  60 61  61 62  62 63  63 64  64 65  65 66  66 67  67 68  68 69  69 70  70 71  71 72  72 73  73 74  74 75  75 76  76 77  77 78  78 79  79 80  80 81  81 82  82 83  83 84  84 85  85 86  86 87  87 88  88 89  89 90  90 91  91 92  92 93  93 94  94 95  95 96  96 97  97 98  98 99  99 100  </DataArray>
<DataArray  type="UInt32"  Name="offsets"  format="ascii">2 4 6 8 10 12 14 16 18 20 22 24 26 28 30 32 34 36 38 40 42 44 46 48 50 52 54 56 58 60 62 64 66 68 70 72 74 76 78 80 82 84 86 88 90 92 94 96 98 100 102 104 106 108 110 112 114 116 118 120 122 124 126 128 130 132 134 136 138 140 142 144 146 148 150 152 154 156 158 160 162 164 166 168 170 172 174 176 178 180 182 184 186 188 190 192 194 196 198 200 </DataArray>
<DataArray  type="UInt8"  Name="types"  format="ascii">3 3 3 3 3 3 3 3 3 3 3 3 3 3 3 3 3 3 3 3 3 3 3 3 3 3 3 3 3 3 3 3 3 3 3 3 3 3 3 3 3 3 3 3 3 3 3 3 3 3 3 3 3 3 3 3 3 3 3 3 3 3 3 3 3 3 3 3 3 3 3 3 3 3 3 3 3 3 3 3 3 3 3 3 3 3 3 3 3 3 3 3 3 3 3 3 3 3 3 3 </DataArray>
</Cells>
<PointData  Scalars="f_38"> 
<DataArray  type="Float64"  Name="f_38"  format="ascii">0.0000000000000000e+00  2.0495785753198647e-04  3.5227168436836615e-04  4.5196049541726554e-04  5.1885411107153317e-04  5.6348834169372768e-04  5.9318025311300040e-04  6.1289021414964230e-04  6.2595389150810362e-04  6.3460199235068268e-04  6.4032134272871857e-04  6.4410060598705133e-04  6.4659604899617456e-04  6.4824270181150934e-04  6.4932861839175904e-04  6.5004435286215466e-04  6.5051585742230303e-04  6.5082632286505725e-04  6.5103065990217211e-04  6.5116509077234167e-04  6.5125349632660229e-04  6.5131161267938358e-04  6.5134980396688435e-04  6.5137489309957338e-04  6.5139136979429010e-04  6.5140218724297496e-04  6.5140928721528035e-04  6.5141394599187706e-04  6.5141700215493904e-04  6.5141900651717849e-04  6.5142032076202989e-04  6.5142118231457675e-04  6.5142174698809758e-04  6.5142211701024624e-04  6.5142235943494559e-04  6.5142251823430478e-04  6.5142262223753561e-04  6.5142269034173703e-04  6.5142273493111642e-04  6.5142276412003637e-04  6.5142278322410788e-04  6.5142279572476063e-04  6.5142280390152762e-04  6.5142280924638380e-04  6.5142281273514668e-04  6.5142281500511236e-04  6.5142281647114929e-04  6.5142281740132157e-04  6.5142281796577988e-04  6.5142281826781226e-04  6.5142281836270001e-04  6.5142281826781247e-04  6.5142281796578010e-04  6.5142281740132168e-04  6.5142281647114961e-04  6.5142281500511247e-04  6.5142281273514668e-04  6.5142280924638369e-04  6.5142280390152729e-04  6.5142279572476031e-04  6.5142278322410723e-04  6.5142276412003561e-04  6.5142273493111577e-04  6.5142269034173638e-04  6.5142262223753507e-04  6.5142251823430413e-04  6.5142235943494494e-04  6.5142211701024570e-04  6.5142174698809726e-04  6.5142118231457675e-04  6.5142032076203000e-04  6.5141900651717870e-04  6.5141700215493904e-04  6.5141394599187706e-04  6.5140928721528046e-04  6.5140218724297507e-04  6.5139136979429010e-04  6.5137489309957338e-04  6.5134980396688435e-04  6.5131161267938369e-04  6.5125349632660261e-04  6.5116509077234189e-04  6.5103065990217233e-04  6.5082632286505757e-04  6.5051585742230346e-04  6.5004435286215498e-04  6.4932861839175936e-04  6.4824270181150956e-04  6.4659604899617500e-04  6.4410060598705165e-04  6.4032134272871879e-04  6.3460199235068268e-04  6.2595389150810383e-04  6.1289021414964219e-04  5.9318025311299997e-04  5.6348834169372758e-04  5.1885411107153285e-04  4.5196049541726602e-04  3.5227168436836583e-04  2.0495785753198777e-04  0.0000000000000000e+00  </DataArray> 
</PointData> 
</Piece>
</UnstructuredGrid>
</VTKFile>