<?xml version="1.0"?>
<VTKFile type="UnstructuredGrid"  version="0.1"  >
<UnstructuredGrid>
<Piece  NumberOfPoints="101" NumberOfCells="100">
<Points>
<DataArray  type="Float64"  NumberOfComponents="3"  format="ascii">0 0 0  1e-07 0 0  2e-07 0 0  3e-07 0 0  4e-07 0 0  5e-07 0 0  6.000000000000001e-07 0 0  7.000000000000001e-07 0 0  8.000000000000001e-07 0 0  9.000000000000001e-07 0 0  1e-06 0 0  1.1e-06 0 0  1.2e-06 0 0  1.3e-06 0 0  1.4e-06 0 0  1.5e-06 0 0  1.6e-06 0 0  1.7e-06 0 0  1.8e-06 0 0  1.9e-06 0 0  2e-06 0 0  2.1e-06 0 0  2.2e-06 0 0  2.3e-06 0 0  2.4e-06 0 0  2.5e-06 0 0  2.600000000000001e-06 0 0  2.7e-06 0 0  2.8e-06 0 0  2.9e-06 0 0  3e-06 0 0  3.1e-06 0 0  3.2e-06 0 0  3.300000000000001e-06 0 0  3.4e-06 0 0  3.5e-06 0 0  3.6e-06 0 0  3.700000000000001e-06 0 0  3.8e-06 0 0  3.900000000000001e-06 0 0  4e-06 0 0  4.100000000000001e-06 0 0  4.2e-06 0 0  4.3e-06 0 0  4.4e-06 0 0  4.5e-06 0 0  4.6e-06 0 0  4.700000000000001e-06 0 0  4.800000000000001e-06 0 0  4.900000000000001e-06 0 0  5e-06 0 0  5.1e-06 0 0  5.200000000000001e-06 0 0  5.300000000000001e-06 0 0  5.4e-06 0 0  5.500000000000001e-06 0 0  5.600000000000001e-06 0 0  5.7e-06 0 0  5.8e-06 0 0  5.9e-06 0 0  6e-06 0 0  6.100000000000001e-06 0 0  6.2e-06 0 0  6.300000000000001e-06 0 0  6.400000000000001e-06 0 0  6.5e-06 0 0  6.600000000000001e-06 0 0  6.7e-06 0 0  6.8e-06 0 0  6.900000000000001e-06 0 0  7.000000000000001e-06 0 0  7.1e-06 0 0  7.200000000000001e-06 0 0  7.3e-06 0 0  7.400000000000001e-06 0 0  7.5e-06 0 0  7.6e-06 0 0  7.700000000000001e-06 0 0  7.800000000000002e-06 0 0  7.900000000000001e-06 0 0  8e-06 0 0  8.1e-06 0 0  8.200000000000001e-06 0 0  8.300000000000002e-06 0 0  8.400000000000001e-06 0 0  8.5e-06 0 0  8.600000000000001e-06 0 0  8.700000000000001e-06 0 0  8.8e-06 0 0  8.900000000000001e-06 0 0  9e-06 0 0  9.100000000000001e-06 0 0  9.2e-06 0 0  9.300000000000001e-06 0 0  9.400000000000001e-06 0 0  9.500000000000001e-06 0 0  9.600000000000001e-06 0 0  9.7e-06 0 0  9.800000000000001e-06 0 0  9.9e-06 0 0  1e-05 0 0  </DataArray>
</Points>
<Cells>
<DataArray  type="UInt32"  Name="connectivity"  format="ascii">0 1  1 2  2 3  3 4  4 5  5 6  6 7  7 8  8 9  9 10  10 11  11 12  12 13  13 14  14 15  15 16  16 17  17 18  18 19  19 20  20 21  21 22  22 23  23 24  24 25  25 26  26 27  27 28  28 29  29 30  30 31  31 32  32 33  33 34  34 35  35 36  36 37  37 38  38 39  39 40  40 41  41 42  42 43  43 44  44 45  45 46  46 47  47 48  48 49  49 50  50 51  51 52  52 53  53 54  54 55  55 56  56 57  57 58  58 59  59 60  60 61  61 62  62 63  63 64  64 65  65 66  66 67  67 68  68 69  69 70  70 71  71 72  72 73  73 74  74 75  75 76  76 77  77 78  78 79  79 80  80 81  81 82  82 83  83 84  84 85  85 86  86 87  87 88  88 89  89 90  90 91  91 92  92 93  93 94  94 95  95 96  96 97  97 98  98 99  99 100  </DataArray>
<DataArray  type="UInt32"  Name="offsets"  format="ascii">2 4 6 8 10 12 14 16 18 20 22 24 26 28 30 32 34 36 38 40 42 44 46 48 50 52 54 56 58 60 62 64 66 68 70 72 74 76 78 80 82 84 86 88 90 92 94 96 98 100 102 104 106 108 110 112 114 116 118 120 122 124 126 128 130 132 134 136 138 140 142 144 146 148 150 152 154 156 158 160 162 164 166 168 170 172 174 176 178 180 182 184 186 188 190 192 194 196 198 200 </DataArray>
<DataArray  type="UInt8"  Name="types"  format="ascii">3 3 3 3 3 3 3 3 3 3 3 3 3 3 3 3 3 3 3 3 3 3 3 3 3 3 3 3 3 3 3 3 3 3 3 3 3 3 3 3 3 3 3 3 3 3 3 3 3 3 3 3 3 3 3 3 3 3 3 3 3 3 3 3 3 3 3 3 3 3 3 3 3 3 3 3 3 3 3 3 3 3 3 3 3 3 3 3 3 3 3 3 3 3 3 3 3 3 3 3 </DataArray>
</Cells>
<PointData  Scalars="f_41"> 
<DataArray  type="Float64"  Name="f_41"  format="ascii">0.0000000000000000e+00  1.1396267740269364e-03  9.6872229539621496e-04  1.0069585656364074e-03  9.9768974892538022e-04  1.0000940487426648e-03  9.9949497204445802e-04  9.9966788453648386e-04  9.9963166881601034e-04  9.9964733713034273e-04  9.9964701913886757e-04  9.9964958931611416e-04  9.9965051014364774e-04  9.9965130749181202e-04  9.9965177287149819e-04  9.9965209033517658e-04  9.9965229345824465e-04  9.9965242697013477e-04  9.9965251380462164e-04  9.9965257054559814e-04  9.9965260755946993e-04  9.9965263172511012e-04  9.9965264749842246e-04  9.9965265779561200e-04  9.9965266451766286e-04  9.9965266890600217e-04  9.9965267177082621e-04  9.9965267364107127e-04  9.9965267486202191e-04  9.9965267565909179e-04  9.9965267617943879e-04  9.9965267651912996e-04  9.9965267674088378e-04  9.9965267688564298e-04  9.9965267698013944e-04  9.9965267704182144e-04  9.9965267708208155e-04  9.9965267710835524e-04  9.9965267712549800e-04  9.9965267713667807e-04  9.9965267714396369e-04  9.9965267714870339e-04  9.9965267715177949e-04  9.9965267715376293e-04  9.9965267715502949e-04  9.9965267715582031e-04  9.9965267715629151e-04  9.9965267715654152e-04  9.9965267715663281e-04  9.9965267715659920e-04  9.9965267715645695e-04  9.9965267715620672e-04  9.9965267715583506e-04  9.9965267715531204e-04  9.9965267715459061e-04  9.9965267715359553e-04  9.9965267715221144e-04  9.9965267715026898e-04  9.9965267714750925e-04  9.9965267714354259e-04  9.9965267713777854e-04  9.9965267712932089e-04  9.9965267711680334e-04  9.9965267709814141e-04  9.9965267707015511e-04  9.9965267702797574e-04  9.9965267696416112e-04  9.9965267686731411e-04  9.9965267671998643e-04  9.9965267649545424e-04  9.9965267615278607e-04  9.9965267562928534e-04  9.9965267482891190e-04  9.9965267360454060e-04  9.9965267173080267e-04  9.9965266886246039e-04  9.9965266447063343e-04  9.9965265774518228e-04  9.9965264744474470e-04  9.9965263166839659e-04  9.9965260750000057e-04  9.9965257048371036e-04  9.9965251374071508e-04  9.9965242690465937e-04  9.9965229339169567e-04  9.9965209026809049e-04  9.9965177280443443e-04  9.9965130742534912e-04  9.9965051007835730e-04  9.9964958925256842e-04  9.9964701907752644e-04  9.9964733707185870e-04  9.9963166876002843e-04  9.9966788448555780e-04  9.9949497199095416e-04  1.0000940487103248e-03  9.9768974884134284e-04  1.0069585657018708e-03  9.6872229509952531e-04  1.1396267743149292e-03  0.0000000000000000e+00  </DataArray> 
</PointData> 
</Piece>
</UnstructuredGrid>
</VTKFile>