<?xml version="1.0"?>
<VTKFile type="UnstructuredGrid"  version="0.1"  >
<UnstructuredGrid>
<Piece  NumberOfPoints="101" NumberOfCells="100">
<Points>
<DataArray  type="Float64"  NumberOfComponents="3"  format="ascii">0 0 0  1e-07 0 0  2e-07 0 0  3e-07 0 0  4e-07 0 0  5e-07 0 0  6.000000000000001e-07 0 0  7.000000000000001e-07 0 0  8.000000000000001e-07 0 0  9.000000000000001e-07 0 0  1e-06 0 0  1.1e-06 0 0  1.2e-06 0 0  1.3e-06 0 0  1.4e-06 0 0  1.5e-06 0 0  1.6e-06 0 0  1.7e-06 0 0  1.8e-06 0 0  1.9e-06 0 0  2e-06 0 0  2.1e-06 0 0  2.2e-06 0 0  2.3e-06 0 0  2.4e-06 0 0  2.5e-06 0 0  2.600000000000001e-06 0 0  2.7e-06 0 0  2.8e-06 0 0  2.9e-06 0 0  3e-06 0 0  3.1e-06 0 0  3.2e-06 0 0  3.300000000000001e-06 0 0  3.4e-06 0 0  3.5e-06 0 0  3.6e-06 0 0  3.700000000000001e-06 0 0  3.8e-06 0 0  3.900000000000001e-06 0 0  4e-06 0 0  4.100000000000001e-06 0 0  4.2e-06 0 0  4.3e-06 0 0  4.4e-06 0 0  4.5e-06 0 0  4.6e-06 0 0  4.700000000000001e-06 0 0  4.800000000000001e-06 0 0  4.900000000000001e-06 0 0  5e-06 0 0  5.1e-06 0 0  5.200000000000001e-06 0 0  5.300000000000001e-06 0 0  5.4e-06 0 0  5.500000000000001e-06 0 0  5.600000000000001e-06 0 0  5.7e-06 0 0  5.8e-06 0 0  5.9e-06 0 0  6e-06 0 0  6.100000000000001e-06 0 0  6.2e-06 0 0  6.300000000000001e-06 0 0  6.400000000000001e-06 0 0  6.5e-06 0 0  6.600000000000001e-06 0 0  6.7e-06 0 0  6.8e-06 0 0  6.900000000000001e-06 0 0  7.000000000000001e-06 0 0  7.1e-06 0 0  7.200000000000001e-06 0 0  7.3e-06 0 0  7.400000000000001e-06 0 0  7.5e-06 0 0  7.6e-06 0 0  7.700000000000001e-06 0 0  7.800000000000002e-06 0 0  7.900000000000001e-06 0 0  8e-06 0 0  8.1e-06 0 0  8.200000000000001e-06 0 0  8.300000000000002e-06 0 0  8.400000000000001e-06 0 0  8.5e-06 0 0  8.600000000000001e-06 0 0  8.700000000000001e-06 0 0  8.8e-06 0 0  8.900000000000001e-06 0 0  9e-06 0 0  9.100000000000001e-06 0 0  9.2e-06 0 0  9.300000000000001e-06 0 0  9.400000000000001e-06 0 0  9.500000000000001e-06 0 0  9.600000000000001e-06 0 0  9.7e-06 0 0  9.800000000000001e-06 0 0  9.9e-06 0 0  1e-05 0 0  </DataArray>
</Points>
<Cells>
<DataArray  type="UInt32"  Name="connectivity"  format="ascii">0 1  1 2  2 3  3 4  4 5  5 6  6 7  7 8  8 9  9 10  10 11  11 12  12 13  13 14  14 15  15 16  16 17  17 18  18 19  19 20  20 21  21 22  22 23  23 24  24 25  25 26  26 27  27 28  28 29  29 30  30 31  31 32  32 33  33 34  34 35  35 36  36 37  37 38  38 39  39 40  40 41  41 42  42 43  43 44  44 45  45 46  46 47  47 48  48 49  49 50  50 51  51 52  52 53  53 54  54 55  55 56  56 57  57 58  58 59  59 60  60 61  61 62  62 63  63 64  64 65  65 66  66 67  67 68  68 69  69 70  70 71  71 72  72 73  73 74  74 75  75 76  76 77  77 78  78 79  79 80  80 81  81 82  82 83  83 84  84 85  85 86  86 87  87 88  88 89  89 90  90 91  91 92  92 93  93 94  94 95  95 96  96 97  97 98  98 99  99 100  </DataArray>
<DataArray  type="UInt32"  Name="offsets"  format="ascii">2 4 6 8 10 12 14 16 18 20 22 24 26 28 30 32 34 36 38 40 42 44 46 48 50 52 54 56 58 60 62 64 66 68 70 72 74 76 78 80 82 84 86 88 90 92 94 96 98 100 102 104 106 108 110 112 114 116 118 120 122 124 126 128 130 132 134 136 138 140 142 144 146 148 150 152 154 156 158 160 162 164 166 168 170 172 174 176 178 180 182 184 186 188 190 192 194 196 198 200 </DataArray>
<DataArray  type="UInt8"  Name="types"  format="ascii">3 3 3 3 3 3 3 3 3 3 3 3 3 3 3 3 3 3 3 3 3 3 3 3 3 3 3 3 3 3 3 3 3 3 3 3 3 3 3 3 3 3 3 3 3 3 3 3 3 3 3 3 3 3 3 3 3 3 3 3 3 3 3 3 3 3 3 3 3 3 3 3 3 3 3 3 3 3 3 3 3 3 3 3 3 3 3 3 3 3 3 3 3 3 3 3 3 3 3 3 </DataArray>
</Cells>
<PointData  Scalars="f_34"> 
<DataArray  type="Float64"  Name="f_34"  format="ascii">0.0000000000000000e+00  1.1953654733977374e-81  2.3895512653914532e-81  3.5813788587802492e-81  4.7696720636205383e-81  5.9532581779835206e-81  7.1309691452704059e-81  8.3016427069432486e-81  9.4641235495338113e-81  1.0617264444798470e-80  1.1759927381893984e-80  1.2890984690456812e-80  1.4009320153477602e-80  1.5113830108872625e-80  1.6203424538665013e-80  1.7277028144700893e-80  1.8333581409838846e-80  1.9372041643565401e-80  2.0391384011004685e-80  2.1390602544306740e-80  2.2368711135416309e-80  2.3324744509242439e-80  2.4257759176268469e-80  2.5166834363662283e-80  2.6051072923967897e-80  2.6909602220481693e-80  2.7741574988439512e-80  2.8546170171164669e-80  2.9322593730351784e-80  3.0070079429686673e-80  3.0787889591029145e-80  3.1475315822412231e-80  3.2131679717139521e-80  3.2756333523290706e-80  3.3348660782974459e-80  3.3908076940698029e-80  3.4434029920252850e-80  3.4926000669547183e-80  3.5383503672847834e-80  3.5806087429925557e-80  3.6193334901631251e-80  3.6544863921463318e-80  3.6860327572719789e-80  3.7139414530863267e-80  3.7381849370760649e-80  3.7587392838494452e-80  3.7755842087477611e-80  3.7887030878638484e-80  3.7980829744478811e-80  3.8037146116842482e-80  3.8055924418269138e-80  3.8037146116842400e-80  3.7980829744478646e-80  3.7887030878638251e-80  3.7755842087477304e-80  3.7587392838494078e-80  3.7381849370760192e-80  3.7139414530862736e-80  3.6860327572719175e-80  3.6544863921462622e-80  3.6193334901630480e-80  3.5806087429924696e-80  3.5383503672846913e-80  3.4926000669546187e-80  3.4434029920251786e-80  3.3908076940696921e-80  3.3348660782973310e-80  3.2756333523289534e-80  3.2131679717138345e-80  3.1475315822411048e-80  3.0787889591027973e-80  3.0070079429685512e-80  2.9322593730350626e-80  2.8546170171163534e-80  2.7741574988438392e-80  2.6909602220480611e-80  2.6051072923966863e-80  2.5166834363661295e-80  2.4257759176267525e-80  2.3324744509241544e-80  2.2368711135415485e-80  2.1390602544305976e-80  2.0391384011003970e-80  1.9372041643564727e-80  1.8333581409838232e-80  1.7277028144700335e-80  1.6203424538664490e-80  1.5113830108872134e-80  1.4009320153477166e-80  1.2890984690456413e-80  1.1759927381893644e-80  1.0617264444798165e-80  9.4641235495335622e-81  8.3016427069430314e-81  7.1309691452702149e-81  5.9532581779833736e-81  4.7696720636204119e-81  3.5813788587801649e-81  2.3895512653913909e-81  1.1953654733977161e-81  0.0000000000000000e+00  </DataArray> 
</PointData> 
</Piece>
</UnstructuredGrid>
</VTKFile>