<?xml version="1.0"?>
<VTKFile type="UnstructuredGrid"  version="0.1"  >
<UnstructuredGrid>
<Piece  NumberOfPoints="101" NumberOfCells="100">
<Points>
<DataArray  type="Float64"  NumberOfComponents="3"  format="ascii">0 0 0  1e-07 0 0  2e-07 0 0  3e-07 0 0  4e-07 0 0  5e-07 0 0  6.000000000000001e-07 0 0  7.000000000000001e-07 0 0  8.000000000000001e-07 0 0  9.000000000000001e-07 0 0  1e-06 0 0  1.1e-06 0 0  1.2e-06 0 0  1.3e-06 0 0  1.4e-06 0 0  1.5e-06 0 0  1.6e-06 0 0  1.7e-06 0 0  1.8e-06 0 0  1.9e-06 0 0  2e-06 0 0  2.1e-06 0 0  2.2e-06 0 0  2.3e-06 0 0  2.4e-06 0 0  2.5e-06 0 0  2.600000000000001e-06 0 0  2.7e-06 0 0  2.8e-06 0 0  2.9e-06 0 0  3e-06 0 0  3.1e-06 0 0  3.2e-06 0 0  3.300000000000001e-06 0 0  3.4e-06 0 0  3.5e-06 0 0  3.6e-06 0 0  3.700000000000001e-06 0 0  3.8e-06 0 0  3.900000000000001e-06 0 0  4e-06 0 0  4.100000000000001e-06 0 0  4.2e-06 0 0  4.3e-06 0 0  4.4e-06 0 0  4.5e-06 0 0  4.6e-06 0 0  4.700000000000001e-06 0 0  4.800000000000001e-06 0 0  4.900000000000001e-06 0 0  5e-06 0 0  5.1e-06 0 0  5.200000000000001e-06 0 0  5.300000000000001e-06 0 0  5.4e-06 0 0  5.500000000000001e-06 0 0  5.600000000000001e-06 0 0  5.7e-06 0 0  5.8e-06 0 0  5.9e-06 0 0  6e-06 0 0  6.100000000000001e-06 0 0  6.2e-06 0 0  6.300000000000001e-06 0 0  6.400000000000001e-06 0 0  6.5e-06 0 0  6.600000000000001e-06 0 0  6.7e-06 0 0  6.8e-06 0 0  6.900000000000001e-06 0 0  7.000000000000001e-06 0 0  7.1e-06 0 0  7.200000000000001e-06 0 0  7.3e-06 0 0  7.400000000000001e-06 0 0  7.5e-06 0 0  7.6e-06 0 0  7.700000000000001e-06 0 0  7.800000000000002e-06 0 0  7.900000000000001e-06 0 0  8e-06 0 0  8.1e-06 0 0  8.200000000000001e-06 0 0  8.300000000000002e-06 0 0  8.400000000000001e-06 0 0  8.5e-06 0 0  8.600000000000001e-06 0 0  8.700000000000001e-06 0 0  8.8e-06 0 0  8.900000000000001e-06 0 0  9e-06 0 0  9.100000000000001e-06 0 0  9.2e-06 0 0  9.300000000000001e-06 0 0  9.400000000000001e-06 0 0  9.500000000000001e-06 0 0  9.600000000000001e-06 0 0  9.7e-06 0 0  9.800000000000001e-06 0 0  9.9e-06 0 0  1e-05 0 0  </DataArray>
</Points>
<Cells>
<DataArray  type="UInt32"  Name="connectivity"  format="ascii">0 1  1 2  2 3  3 4  4 5  5 6  6 7  7 8  8 9  9 10  10 11  11 12  12 13  13 14  14 15  15 16  16 17  17 18  18 19  19 20  20 21  21 22  22 23  23 24  24 25  25 26  26 27  27 28  28 29  29 30  30 31  31 32  32 33  33 34  34 35  35 36  36 37  37 38  38 39  39 40  40 41  41 42  42 43  43 44  44 45  45 46  46 47  47 48  48 49  49 50  50 51  51 52  52 53  53 54  54 55  55 56  56 57  57 58  58 59  59 60  60 61  61 62  62 63  63 64  64 65  65 66  66 67  67 68  68 69  69 70  70 71  71 72  72 73  73 74  74 75  75 76  76 77  77 78  78 79  79 80  80 81  81 82  82 83  83 84  84 85  85 86  86 87  87 88  88 89  89 90  90 91  91 92  92 93  93 94  94 95  95 96  96 97  97 98  98 99  99 100  </DataArray>
<DataArray  type="UInt32"  Name="offsets"  format="ascii">2 4 6 8 10 12 14 16 18 20 22 24 26 28 30 32 34 36 38 40 42 44 46 48 50 52 54 56 58 60 62 64 66 68 70 72 74 76 78 80 82 84 86 88 90 92 94 96 98 100 102 104 106 108 110 112 114 116 118 120 122 124 126 128 130 132 134 136 138 140 142 144 146 148 150 152 154 156 158 160 162 164 166 168 170 172 174 176 178 180 182 184 186 188 190 192 194 196 198 200 </DataArray>
<DataArray  type="UInt8"  Name="types"  format="ascii">3 3 3 3 3 3 3 3 3 3 3 3 3 3 3 3 3 3 3 3 3 3 3 3 3 3 3 3 3 3 3 3 3 3 3 3 3 3 3 3 3 3 3 3 3 3 3 3 3 3 3 3 3 3 3 3 3 3 3 3 3 3 3 3 3 3 3 3 3 3 3 3 3 3 3 3 3 3 3 3 3 3 3 3 3 3 3 3 3 3 3 3 3 3 3 3 3 3 3 3 </DataArray>
</Cells>
<PointData  Scalars="f_41"> 
<DataArray  type="Float64"  Name="f_41"  format="ascii">0.0000000000000000e+00  1.1483369480772790e-03  9.6329086567660213e-04  1.0087727976236726e-03  9.9722156604828524e-04  1.0002502881209243e-03  9.9946872511230364e-04  9.9968502097207449e-04  9.9963339819036457e-04  9.9965093872932164e-04  9.9964869111112699e-04  9.9965087839245744e-04  9.9965133589051056e-04  9.9965191080146057e-04  9.9965223851114656e-04  9.9965250345947676e-04  9.9965271627854881e-04  9.9965291770796189e-04  9.9965313066165042e-04  9.9965337731394428e-04  9.9965367705495320e-04  9.9965404823840133e-04  9.9965450775574521e-04  9.9965507009383992e-04  9.9965574546426834e-04  9.9965653721354147e-04  9.9965743872459673e-04  9.9965843027939160e-04  9.9965947659436073e-04  9.9966052595328188e-04  9.9966151191900891e-04  9.9966235838759620e-04  9.9966298814887253e-04  9.9966333409158038e-04  9.9966335086490400e-04  9.9966302371230385e-04  9.9966237129295917e-04  9.9966144120088658e-04  9.9966029967852492e-04  9.9965901880531057e-04  9.9965766438355982e-04  9.9965628649358149e-04  9.9965491326009840e-04  9.9965354732311465e-04  9.9965216401008391e-04  9.9965070982462869e-04  9.9964910028249479e-04  9.9964721292001364e-04  9.9964487956687056e-04  9.9964184186728889e-04  9.9963781171859625e-04  9.9963200104933236e-04  9.9962388885428558e-04  9.9961192507572834e-04  9.9959632087082747e-04  9.9956850261717937e-04  9.9954958904069618e-04  9.9954916786858705e-04  9.9953896877135687e-04  9.9952283181062480e-04  9.9951945661580564e-04  9.9943508993561832e-04  9.9960684159708726e-04  9.9843943957575909e-04  1.0026788811578269e-03  9.7607468496502302e-04  1.1574963644101004e-03  9.8846665496855326e-04  1.0159817849904923e-03  1.0124931148806123e-03  1.0197489222524838e-03  1.0277702381538225e-03  1.0409459590162752e-03  1.0605455017330334e-03  1.0916086982309889e-03  1.1376748492842837e-03  1.2285824822917232e-03  1.3203939073153088e-03  1.8491619391749056e-03  1.2829941839712740e-03  1.3090122729879219e-02  -5.3081547234309261e-03  -2.1241300544202395e-04  -6.0249124151623933e-04  -2.1537143432446692e-04  -1.6322924144089132e-04  -9.1991950845054664e-05  -6.0127128224711077e-05  -3.7454980520226811e-05  -2.4001215744967985e-05  -1.5260752881662243e-05  -9.7496332066076184e-06  -6.2152465315179570e-06  -3.9598103394207857e-06  -2.5157646496035208e-06  -1.5907243604102254e-06  -9.9508387542090281e-07  -6.0665628948002616e-07  -3.4513792257208352e-07  -1.5611753849186598e-07  0.0000000000000000e+00  </DataArray> 
</PointData> 
</Piece>
</UnstructuredGrid>
</VTKFile>