<?xml version="1.0"?>
<VTKFile type="UnstructuredGrid"  version="0.1"  >
<UnstructuredGrid>
<Piece  NumberOfPoints="101" NumberOfCells="100">
<Points>
<DataArray  type="Float64"  NumberOfComponents="3"  format="ascii">0 0 0  1e-07 0 0  2e-07 0 0  3e-07 0 0  4e-07 0 0  5e-07 0 0  6.000000000000001e-07 0 0  7.000000000000001e-07 0 0  8.000000000000001e-07 0 0  9.000000000000001e-07 0 0  1e-06 0 0  1.1e-06 0 0  1.2e-06 0 0  1.3e-06 0 0  1.4e-06 0 0  1.5e-06 0 0  1.6e-06 0 0  1.7e-06 0 0  1.8e-06 0 0  1.9e-06 0 0  2e-06 0 0  2.1e-06 0 0  2.2e-06 0 0  2.3e-06 0 0  2.4e-06 0 0  2.5e-06 0 0  2.600000000000001e-06 0 0  2.7e-06 0 0  2.8e-06 0 0  2.9e-06 0 0  3e-06 0 0  3.1e-06 0 0  3.2e-06 0 0  3.300000000000001e-06 0 0  3.4e-06 0 0  3.5e-06 0 0  3.6e-06 0 0  3.700000000000001e-06 0 0  3.8e-06 0 0  3.900000000000001e-06 0 0  4e-06 0 0  4.100000000000001e-06 0 0  4.2e-06 0 0  4.3e-06 0 0  4.4e-06 0 0  4.5e-06 0 0  4.6e-06 0 0  4.700000000000001e-06 0 0  4.800000000000001e-06 0 0  4.900000000000001e-06 0 0  5e-06 0 0  5.1e-06 0 0  5.200000000000001e-06 0 0  5.300000000000001e-06 0 0  5.4e-06 0 0  5.500000000000001e-06 0 0  5.600000000000001e-06 0 0  5.7e-06 0 0  5.8e-06 0 0  5.9e-06 0 0  6e-06 0 0  6.100000000000001e-06 0 0  6.2e-06 0 0  6.300000000000001e-06 0 0  6.400000000000001e-06 0 0  6.5e-06 0 0  6.600000000000001e-06 0 0  6.7e-06 0 0  6.8e-06 0 0  6.900000000000001e-06 0 0  7.000000000000001e-06 0 0  7.1e-06 0 0  7.200000000000001e-06 0 0  7.3e-06 0 0  7.400000000000001e-06 0 0  7.5e-06 0 0  7.6e-06 0 0  7.700000000000001e-06 0 0  7.800000000000002e-06 0 0  7.900000000000001e-06 0 0  8e-06 0 0  8.1e-06 0 0  8.200000000000001e-06 0 0  8.300000000000002e-06 0 0  8.400000000000001e-06 0 0  8.5e-06 0 0  8.600000000000001e-06 0 0  8.700000000000001e-06 0 0  8.8e-06 0 0  8.900000000000001e-06 0 0  9e-06 0 0  9.100000000000001e-06 0 0  9.2e-06 0 0  9.300000000000001e-06 0 0  9.400000000000001e-06 0 0  9.500000000000001e-06 0 0  9.600000000000001e-06 0 0  9.7e-06 0 0  9.800000000000001e-06 0 0  9.9e-06 0 0  1e-05 0 0  </DataArray>
</Points>
<Cells>
<DataArray  type="UInt32"  Name="connectivity"  format="ascii">0 1  1 2  2 3  3 4  4 5  5 6  6 7  7 8  8 9  9 10  10 11  11 12  12 13  13 14  14 15  15 16  16 17  17 18  18 19  19 20  20 21  21 22  22 23  23 24  24 25  25 26  26 27  27 28  28 29  29 30  30 31  31 32  32 33  33 34  34 35  35 36  36 37  37 38  38 39  39 40  40 41  41 42  42 43  43 44  44 45  45 46  46 47  47 48  48 49  49 50  50 51  51 52  52 53  53 54  54 55  55 56  56 57  57 58  58 59  59 60  60 61  61 62  62 63  63 64  64 65  65 66  66 67  67 68  68 69  69 70  70 71  71 72  72 73  73 74  74 75  75 76  76 77  77 78  78 79  79 80  80 81  81 82  82 83  83 84  84 85  85 86  86 87  87 88  88 89  89 90  90 91  91 92  92 93  93 94  94 95  95 96  96 97  97 98  98 99  99 100  </DataArray>
<DataArray  type="UInt32"  Name="offsets"  format="ascii">2 4 6 8 10 12 14 16 18 20 22 24 26 28 30 32 34 36 38 40 42 44 46 48 50 52 54 56 58 60 62 64 66 68 70 72 74 76 78 80 82 84 86 88 90 92 94 96 98 100 102 104 106 108 110 112 114 116 118 120 122 124 126 128 130 132 134 136 138 140 142 144 146 148 150 152 154 156 158 160 162 164 166 168 170 172 174 176 178 180 182 184 186 188 190 192 194 196 198 200 </DataArray>
<DataArray  type="UInt8"  Name="types"  format="ascii">3 3 3 3 3 3 3 3 3 3 3 3 3 3 3 3 3 3 3 3 3 3 3 3 3 3 3 3 3 3 3 3 3 3 3 3 3 3 3 3 3 3 3 3 3 3 3 3 3 3 3 3 3 3 3 3 3 3 3 3 3 3 3 3 3 3 3 3 3 3 3 3 3 3 3 3 3 3 3 3 3 3 3 3 3 3 3 3 3 3 3 3 3 3 3 3 3 3 3 3 </DataArray>
</Cells>
<PointData  Scalars="f_44"> 
<DataArray  type="Float64"  Name="f_44"  format="ascii">0.0000000000000000e+00  4.5478495617440670e-04  3.8867912005997754e-04  4.0259495802323967e-04  3.9937177734372160e-04  4.0015302064727500e-04  3.9995918347826125e-04  4.0000840052925363e-04  3.9999598581360186e-04  3.9999931603440731e-04  3.9999855230513976e-04  3.9999883195225480e-04  3.9999882402993406e-04  3.9999887993584065e-04  3.9999891006230935e-04  3.9999893985493567e-04  3.9999896399939885e-04  3.9999898496510019e-04  3.9999900292359252e-04  3.9999901847889566e-04  3.9999903198846770e-04  3.9999904377493767e-04  3.9999905409275182e-04  3.9999906315391933e-04  3.9999907113379618e-04  3.9999907817913239e-04  3.9999908441329900e-04  3.9999908994062456e-04  3.9999909484974335e-04  3.9999909921627544e-04  3.9999910310497443e-04  3.9999910657146541e-04  3.9999910966366162e-04  3.9999911242292812e-04  3.9999911488504126e-04  3.9999911708098689e-04  3.9999911903762590e-04  3.9999912077825237e-04  3.9999912232306254e-04  3.9999912368955112e-04  3.9999912489284515e-04  3.9999912594598845e-04  3.9999912686017862e-04  3.9999912764497033e-04  3.9999912830844471e-04  3.9999912885734922e-04  3.9999912929721633e-04  3.9999912963245695e-04  3.9999912986643510e-04  3.9999913000152485e-04  3.9999913003914899e-04  3.9999912997980383e-04  3.9999912982306409e-04  3.9999912956757775e-04  3.9999912921104123e-04  3.9999912875015811e-04  3.9999912818058610e-04  3.9999912749685710e-04  3.9999912669228725e-04  3.9999912575885537e-04  3.9999912468706477e-04  3.9999912346577071e-04  3.9999912208198070e-04  3.9999912052061357e-04  3.9999911876421526e-04  3.9999911679262679e-04  3.9999911458258588e-04  3.9999911210725718e-04  3.9999910933567469e-04  3.9999910623207685e-04  3.9999910275510494e-04  3.9999909885684752e-04  3.9999909448167151e-04  3.9999908956481027e-04  3.9999908403062046e-04  3.9999907779043848e-04  3.9999907073989528e-04  3.9999906275557168e-04  3.9999905369065793e-04  3.9999904336972860e-04  3.9999903158069070e-04  3.9999901806900149e-04  3.9999900251191765e-04  3.9999898455185084e-04  3.9999896358461226e-04  3.9999893943849882e-04  3.9999890964374600e-04  3.9999887951487010e-04  3.9999882360420972e-04  3.9999883152499132e-04  3.9999855185778439e-04  3.9999931562096529e-04  3.9999598523423989e-04  4.0000840043980125e-04  3.9995918166450779e-04  4.0015302427160403e-04  3.9937176376548991e-04  4.0259499475339146e-04  3.8867902458092357e-04  4.5478510997308893e-04  0.0000000000000000e+00  </DataArray> 
</PointData> 
</Piece>
</UnstructuredGrid>
</VTKFile>