<?xml version="1.0"?>
<VTKFile type="UnstructuredGrid"  version="0.1"  >
<UnstructuredGrid>
<Piece  NumberOfPoints="101" NumberOfCells="100">
<Points>
<DataArray  type="Float64"  NumberOfComponents="3"  format="ascii">0 0 0  1e-07 0 0  2e-07 0 0  3e-07 0 0  4e-07 0 0  5e-07 0 0  6.000000000000001e-07 0 0  7.000000000000001e-07 0 0  8.000000000000001e-07 0 0  9.000000000000001e-07 0 0  1e-06 0 0  1.1e-06 0 0  1.2e-06 0 0  1.3e-06 0 0  1.4e-06 0 0  1.5e-06 0 0  1.6e-06 0 0  1.7e-06 0 0  1.8e-06 0 0  1.9e-06 0 0  2e-06 0 0  2.1e-06 0 0  2.2e-06 0 0  2.3e-06 0 0  2.4e-06 0 0  2.5e-06 0 0  2.600000000000001e-06 0 0  2.7e-06 0 0  2.8e-06 0 0  2.9e-06 0 0  3e-06 0 0  3.1e-06 0 0  3.2e-06 0 0  3.300000000000001e-06 0 0  3.4e-06 0 0  3.5e-06 0 0  3.6e-06 0 0  3.700000000000001e-06 0 0  3.8e-06 0 0  3.900000000000001e-06 0 0  4e-06 0 0  4.100000000000001e-06 0 0  4.2e-06 0 0  4.3e-06 0 0  4.4e-06 0 0  4.5e-06 0 0  4.6e-06 0 0  4.700000000000001e-06 0 0  4.800000000000001e-06 0 0  4.900000000000001e-06 0 0  5e-06 0 0  5.1e-06 0 0  5.200000000000001e-06 0 0  5.300000000000001e-06 0 0  5.4e-06 0 0  5.500000000000001e-06 0 0  5.600000000000001e-06 0 0  5.7e-06 0 0  5.8e-06 0 0  5.9e-06 0 0  6e-06 0 0  6.100000000000001e-06 0 0  6.2e-06 0 0  6.300000000000001e-06 0 0  6.400000000000001e-06 0 0  6.5e-06 0 0  6.600000000000001e-06 0 0  6.7e-06 0 0  6.8e-06 0 0  6.900000000000001e-06 0 0  7.000000000000001e-06 0 0  7.1e-06 0 0  7.200000000000001e-06 0 0  7.3e-06 0 0  7.400000000000001e-06 0 0  7.5e-06 0 0  7.6e-06 0 0  7.700000000000001e-06 0 0  7.800000000000002e-06 0 0  7.900000000000001e-06 0 0  8e-06 0 0  8.1e-06 0 0  8.200000000000001e-06 0 0  8.300000000000002e-06 0 0  8.400000000000001e-06 0 0  8.5e-06 0 0  8.600000000000001e-06 0 0  8.700000000000001e-06 0 0  8.8e-06 0 0  8.900000000000001e-06 0 0  9e-06 0 0  9.100000000000001e-06 0 0  9.2e-06 0 0  9.300000000000001e-06 0 0  9.400000000000001e-06 0 0  9.500000000000001e-06 0 0  9.600000000000001e-06 0 0  9.7e-06 0 0  9.800000000000001e-06 0 0  9.9e-06 0 0  1e-05 0 0  </DataArray>
</Points>
<Cells>
<DataArray  type="UInt32"  Name="connectivity"  format="ascii">0 1  1 2  2 3  3 4  4 5  5 6  6 7  7 8  8 9  9 10  10 11  11 12  12 13  13 14  14 15  15 16  16 17  17 18  18 19  19 20  20 21  21 22  22 23  23 24  24 25  25 26  26 27  27 28  28 29  29 30  30 31  31 32  32 33  33 34  34 35  35 36  36 37  37 38  38 39  39 40  40 41  41 42  42 43  43 44  44 45  45 46  46 47  47 48  48 49  49 50  50 51  51 52  52 53  53 54  54 55  55 56  56 57  57 58  58 59  59 60  60 61  61 62  62 63  63 64  64 65  65 66  66 67  67 68  68 69  69 70  70 71  71 72  72 73  73 74  74 75  75 76  76 77  77 78  78 79  79 80  80 81  81 82  82 83  83 84  84 85  85 86  86 87  87 88  88 89  89 90  90 91  91 92  92 93  93 94  94 95  95 96  96 97  97 98  98 99  99 100  </DataArray>
<DataArray  type="UInt32"  Name="offsets"  format="ascii">2 4 6 8 10 12 14 16 18 20 22 24 26 28 30 32 34 36 38 40 42 44 46 48 50 52 54 56 58 60 62 64 66 68 70 72 74 76 78 80 82 84 86 88 90 92 94 96 98 100 102 104 106 108 110 112 114 116 118 120 122 124 126 128 130 132 134 136 138 140 142 144 146 148 150 152 154 156 158 160 162 164 166 168 170 172 174 176 178 180 182 184 186 188 190 192 194 196 198 200 </DataArray>
<DataArray  type="UInt8"  Name="types"  format="ascii">3 3 3 3 3 3 3 3 3 3 3 3 3 3 3 3 3 3 3 3 3 3 3 3 3 3 3 3 3 3 3 3 3 3 3 3 3 3 3 3 3 3 3 3 3 3 3 3 3 3 3 3 3 3 3 3 3 3 3 3 3 3 3 3 3 3 3 3 3 3 3 3 3 3 3 3 3 3 3 3 3 3 3 3 3 3 3 3 3 3 3 3 3 3 3 3 3 3 3 3 </DataArray>
</Cells>
<PointData  Scalars="f_37"> 
<DataArray  type="Float64"  Name="f_37"  format="ascii">0.0000000000000000e+00  1.2609452649647690e+08  7.0958390789171696e+08  1.2563504874944131e+09  8.5916710047499263e+08  1.0384768137989491e+09  -3.1857406638895268e+09  8.1148283649326229e+08  3.0412067035277452e+09  6.9807832307996392e+07  5.1289810863669658e+08  3.1278544641647501e+09  -2.0998220063809788e+08  6.4588007243023920e+08  5.9359490303322840e+08  1.7996146121782477e+09  -7.0853403242071617e+08  4.3367982173382622e+08  4.2219869463747609e+08  7.5393471086401224e+08  1.0698671019612798e+08  4.3517133028532333e+09  -2.2233038483536423e+10  2.8520630472601528e+09  -3.5727259440984267e+08  5.0207315344692588e+08  4.2311699756180024e+08  5.3507944492154342e+08  5.9526598181852722e+08  6.8618831850394201e+08  7.6980267841829014e+08  1.0669407566968390e+09  9.0085014222286475e+08  5.5988165629686642e+09  -2.7729440683543024e+09  -1.8168710097674236e+07  -9.0946766439922407e+07  1.3341277008971527e+08  2.0114931153200716e+08  2.6512008820101091e+08  3.0751880566961074e+08  3.4143174200052136e+08  3.6812199712768060e+08  3.8983532508140010e+08  4.0751937434732795e+08  4.2185916960258257e+08  4.3324929147138304e+08  4.4193664926827085e+08  4.4806522128654981e+08  4.5171597732437980e+08  4.5292890112914997e+08  4.5171597732391101e+08  4.4806522128744823e+08  4.4193664926802325e+08  4.3324929147122091e+08  4.2185916960313606e+08  4.0751937434754902e+08  3.8983532508193320e+08  3.6812199712657881e+08  3.4143174200050306e+08  3.0751880566904765e+08  2.6512008820165315e+08  2.0114931152976540e+08  1.3341277008927868e+08  -9.0946766442049861e+07  -1.8168710100387685e+07  -2.7729440683535728e+09  5.5988165629425764e+09  9.0085014222162616e+08  1.0669407566983905e+09  7.6980267841698909e+08  6.8618831850508440e+08  5.9526598181803191e+08  5.3507944492165786e+08  4.2311699756121445e+08  5.0207315344932270e+08  -3.5727259442565596e+08  2.8520630473447418e+09  -2.2233038484153763e+10  4.3517133029338598e+09  1.0698671018007764e+08  7.5393471086609626e+08  4.2219869463592529e+08  4.3367982173493177e+08  -7.0853403242260444e+08  1.7996146121765673e+09  5.9359490303471673e+08  6.4588007242950904e+08  -2.0998220063782793e+08  3.1278544641524773e+09  5.1289810863668436e+08  6.9807832309341013e+07  3.0412067035195737e+09  8.1148283649696887e+08  -3.1857406639042802e+09  1.0384768138003072e+09  8.5916710047553957e+08  1.2563504874950294e+09  7.0958390789366615e+08  1.2609452649255276e+08  0.0000000000000000e+00  </DataArray> 
</PointData> 
</Piece>
</UnstructuredGrid>
</VTKFile>