<?xml version="1.0"?>
<VTKFile type="UnstructuredGrid"  version="0.1"  >
<UnstructuredGrid>
<Piece  NumberOfPoints="101" NumberOfCells="100">
<Points>
<DataArray  type="Float64"  NumberOfComponents="3"  format="ascii">0 0 0  1e-07 0 0  2e-07 0 0  3e-07 0 0  4e-07 0 0  5e-07 0 0  6.000000000000001e-07 0 0  7.000000000000001e-07 0 0  8.000000000000001e-07 0 0  9.000000000000001e-07 0 0  1e-06 0 0  1.1e-06 0 0  1.2e-06 0 0  1.3e-06 0 0  1.4e-06 0 0  1.5e-06 0 0  1.6e-06 0 0  1.7e-06 0 0  1.8e-06 0 0  1.9e-06 0 0  2e-06 0 0  2.1e-06 0 0  2.2e-06 0 0  2.3e-06 0 0  2.4e-06 0 0  2.5e-06 0 0  2.600000000000001e-06 0 0  2.7e-06 0 0  2.8e-06 0 0  2.9e-06 0 0  3e-06 0 0  3.1e-06 0 0  3.2e-06 0 0  3.300000000000001e-06 0 0  3.4e-06 0 0  3.5e-06 0 0  3.6e-06 0 0  3.700000000000001e-06 0 0  3.8e-06 0 0  3.900000000000001e-06 0 0  4e-06 0 0  4.100000000000001e-06 0 0  4.2e-06 0 0  4.3e-06 0 0  4.4e-06 0 0  4.5e-06 0 0  4.6e-06 0 0  4.700000000000001e-06 0 0  4.800000000000001e-06 0 0  4.900000000000001e-06 0 0  5e-06 0 0  5.1e-06 0 0  5.200000000000001e-06 0 0  5.300000000000001e-06 0 0  5.4e-06 0 0  5.500000000000001e-06 0 0  5.600000000000001e-06 0 0  5.7e-06 0 0  5.8e-06 0 0  5.9e-06 0 0  6e-06 0 0  6.100000000000001e-06 0 0  6.2e-06 0 0  6.300000000000001e-06 0 0  6.400000000000001e-06 0 0  6.5e-06 0 0  6.600000000000001e-06 0 0  6.7e-06 0 0  6.8e-06 0 0  6.900000000000001e-06 0 0  7.000000000000001e-06 0 0  7.1e-06 0 0  7.200000000000001e-06 0 0  7.3e-06 0 0  7.400000000000001e-06 0 0  7.5e-06 0 0  7.6e-06 0 0  7.700000000000001e-06 0 0  7.800000000000002e-06 0 0  7.900000000000001e-06 0 0  8e-06 0 0  8.1e-06 0 0  8.200000000000001e-06 0 0  8.300000000000002e-06 0 0  8.400000000000001e-06 0 0  8.5e-06 0 0  8.600000000000001e-06 0 0  8.700000000000001e-06 0 0  8.8e-06 0 0  8.900000000000001e-06 0 0  9e-06 0 0  9.100000000000001e-06 0 0  9.2e-06 0 0  9.300000000000001e-06 0 0  9.400000000000001e-06 0 0  9.500000000000001e-06 0 0  9.600000000000001e-06 0 0  9.7e-06 0 0  9.800000000000001e-06 0 0  9.9e-06 0 0  1e-05 0 0  </DataArray>
</Points>
<Cells>
<DataArray  type="UInt32"  Name="connectivity"  format="ascii">0 1  1 2  2 3  3 4  4 5  5 6  6 7  7 8  8 9  9 10  10 11  11 12  12 13  13 14  14 15  15 16  16 17  17 18  18 19  19 20  20 21  21 22  22 23  23 24  24 25  25 26  26 27  27 28  28 29  29 30  30 31  31 32  32 33  33 34  34 35  35 36  36 37  37 38  38 39  39 40  40 41  41 42  42 43  43 44  44 45  45 46  46 47  47 48  48 49  49 50  50 51  51 52  52 53  53 54  54 55  55 56  56 57  57 58  58 59  59 60  60 61  61 62  62 63  63 64  64 65  65 66  66 67  67 68  68 69  69 70  70 71  71 72  72 73  73 74  74 75  75 76  76 77  77 78  78 79  79 80  80 81  81 82  82 83  83 84  84 85  85 86  86 87  87 88  88 89  89 90  90 91  91 92  92 93  93 94  94 95  95 96  96 97  97 98  98 99  99 100  </DataArray>
<DataArray  type="UInt32"  Name="offsets"  format="ascii">2 4 6 8 10 12 14 16 18 20 22 24 26 28 30 32 34 36 38 40 42 44 46 48 50 52 54 56 58 60 62 64 66 68 70 72 74 76 78 80 82 84 86 88 90 92 94 96 98 100 102 104 106 108 110 112 114 116 118 120 122 124 126 128 130 132 134 136 138 140 142 144 146 148 150 152 154 156 158 160 162 164 166 168 170 172 174 176 178 180 182 184 186 188 190 192 194 196 198 200 </DataArray>
<DataArray  type="UInt8"  Name="types"  format="ascii">3 3 3 3 3 3 3 3 3 3 3 3 3 3 3 3 3 3 3 3 3 3 3 3 3 3 3 3 3 3 3 3 3 3 3 3 3 3 3 3 3 3 3 3 3 3 3 3 3 3 3 3 3 3 3 3 3 3 3 3 3 3 3 3 3 3 3 3 3 3 3 3 3 3 3 3 3 3 3 3 3 3 3 3 3 3 3 3 3 3 3 3 3 3 3 3 3 3 3 3 </DataArray>
</Cells>
<PointData  Scalars="f_34"> 
<DataArray  type="Float64"  Name="f_34"  format="ascii">0.0000000000000000e+00  7.0469074184926327e-89  1.4086860390146656e-88  2.1112911331322872e-88  2.8118126378007752e-88  3.5095592228700076e-88  4.2038422967004884e-88  4.8939766857201580e-88  5.5792813106079882e-88  6.2590798584370454e-88  6.9327014501136963e-88  7.5994813024542755e-88  8.2587613842458291e-88  8.9098910656434756e-88  9.5522277602635147e-88  1.0185137559338612e-87  1.0807995857309202e-87  1.1420187968233787e-87  1.2021109732409726e-87  1.2610168112605945e-87  1.3186781779319069e-87  1.3750381684475464e-87  1.4300411623012968e-87  1.4836328781788185e-87  1.5357604275267455e-87  1.5863723667473065e-87  1.6354187479669441e-87  1.6828511683288358e-87  1.7286228177606712e-87  1.7726885251705379e-87  1.8150048030253407e-87  1.8555298902677431e-87  1.8942237935292898e-87  1.9310483265990330e-87  1.9659671481087124e-87  1.9989457973972985e-87  2.0299517285195033e-87  2.0589543423647012e-87  2.0859250168545549e-87  2.1108371351895524e-87  2.1336661121165727e-87  2.1543894181915653e-87  2.1729866020133900e-87  2.1894393104068792e-87  2.2037313065352084e-87  2.2158484859236927e-87  2.2257788903792007e-87  2.2335127197914467e-87  2.2390423418045166e-87  2.2423622993490834e-87  2.2434693160278743e-87  2.2423622993490785e-87  2.2390423418045068e-87  2.2335127197914324e-87  2.2257788903791824e-87  2.2158484859236704e-87  2.2037313065351816e-87  2.1894393104068479e-87  2.1729866020133543e-87  2.1543894181915247e-87  2.1336661121165272e-87  2.1108371351895015e-87  2.0859250168545000e-87  2.0589543423646418e-87  2.0299517285194404e-87  1.9989457973972328e-87  1.9659671481086447e-87  1.9310483265989643e-87  1.8942237935292204e-87  1.8555298902676732e-87  1.8150048030252713e-87  1.7726885251704687e-87  1.7286228177606022e-87  1.6828511683287680e-87  1.6354187479668766e-87  1.5863723667472413e-87  1.5357604275266830e-87  1.4836328781787587e-87  1.4300411623012397e-87  1.3750381684474920e-87  1.3186781779318571e-87  1.2610168112605483e-87  1.2021109732409295e-87  1.1420187968233378e-87  1.0807995857308834e-87  1.0185137559338275e-87  9.5522277602632033e-88  8.9098910656431809e-88  8.2587613842455646e-88  7.5994813024540333e-88  6.9327014501134886e-88  6.2590798584368601e-88  5.5792813106078352e-88  4.8939766857200235e-88  4.2038422967003707e-88  3.5095592228699166e-88  2.8118126378006981e-88  2.1112911331322362e-88  1.4086860390146279e-88  7.0469074184925030e-89  0.0000000000000000e+00  </DataArray> 
</PointData> 
</Piece>
</UnstructuredGrid>
</VTKFile>