<?xml version="1.0"?>
<VTKFile type="UnstructuredGrid"  version="0.1"  >
<UnstructuredGrid>
<Piece  NumberOfPoints="101" NumberOfCells="100">
<Points>
<DataArray  type="Float64"  NumberOfComponents="3"  format="ascii">0 0 0  1e-07 0 0  2e-07 0 0  3e-07 0 0  4e-07 0 0  5e-07 0 0  6.000000000000001e-07 0 0  7.000000000000001e-07 0 0  8.000000000000001e-07 0 0  9.000000000000001e-07 0 0  1e-06 0 0  1.1e-06 0 0  1.2e-06 0 0  1.3e-06 0 0  1.4e-06 0 0  1.5e-06 0 0  1.6e-06 0 0  1.7e-06 0 0  1.8e-06 0 0  1.9e-06 0 0  2e-06 0 0  2.1e-06 0 0  2.2e-06 0 0  2.3e-06 0 0  2.4e-06 0 0  2.5e-06 0 0  2.600000000000001e-06 0 0  2.7e-06 0 0  2.8e-06 0 0  2.9e-06 0 0  3e-06 0 0  3.1e-06 0 0  3.2e-06 0 0  3.300000000000001e-06 0 0  3.4e-06 0 0  3.5e-06 0 0  3.6e-06 0 0  3.700000000000001e-06 0 0  3.8e-06 0 0  3.900000000000001e-06 0 0  4e-06 0 0  4.100000000000001e-06 0 0  4.2e-06 0 0  4.3e-06 0 0  4.4e-06 0 0  4.5e-06 0 0  4.6e-06 0 0  4.700000000000001e-06 0 0  4.800000000000001e-06 0 0  4.900000000000001e-06 0 0  5e-06 0 0  5.1e-06 0 0  5.200000000000001e-06 0 0  5.300000000000001e-06 0 0  5.4e-06 0 0  5.500000000000001e-06 0 0  5.600000000000001e-06 0 0  5.7e-06 0 0  5.8e-06 0 0  5.9e-06 0 0  6e-06 0 0  6.100000000000001e-06 0 0  6.2e-06 0 0  6.300000000000001e-06 0 0  6.400000000000001e-06 0 0  6.5e-06 0 0  6.600000000000001e-06 0 0  6.7e-06 0 0  6.8e-06 0 0  6.900000000000001e-06 0 0  7.000000000000001e-06 0 0  7.1e-06 0 0  7.200000000000001e-06 0 0  7.3e-06 0 0  7.400000000000001e-06 0 0  7.5e-06 0 0  7.6e-06 0 0  7.700000000000001e-06 0 0  7.800000000000002e-06 0 0  7.900000000000001e-06 0 0  8e-06 0 0  8.1e-06 0 0  8.200000000000001e-06 0 0  8.300000000000002e-06 0 0  8.400000000000001e-06 0 0  8.5e-06 0 0  8.600000000000001e-06 0 0  8.700000000000001e-06 0 0  8.8e-06 0 0  8.900000000000001e-06 0 0  9e-06 0 0  9.100000000000001e-06 0 0  9.2e-06 0 0  9.300000000000001e-06 0 0  9.400000000000001e-06 0 0  9.500000000000001e-06 0 0  9.600000000000001e-06 0 0  9.7e-06 0 0  9.800000000000001e-06 0 0  9.9e-06 0 0  1e-05 0 0  </DataArray>
</Points>
<Cells>
<DataArray  type="UInt32"  Name="connectivity"  format="ascii">0 1  1 2  2 3  3 4  4 5  5 6  6 7  7 8  8 9  9 10  10 11  11 12  12 13  13 14  14 15  15 16  16 17  17 18  18 19  19 20  20 21  21 22  22 23  23 24  24 25  25 26  26 27  27 28  28 29  29 30  30 31  31 32  32 33  33 34  34 35  35 36  36 37  37 38  38 39  39 40  40 41  41 42  42 43  43 44  44 45  45 46  46 47  47 48  48 49  49 50  50 51  51 52  52 53  53 54  54 55  55 56  56 57  57 58  58 59  59 60  60 61  61 62  62 63  63 64  64 65  65 66  66 67  67 68  68 69  69 70  70 71  71 72  72 73  73 74  74 75  75 76  76 77  77 78  78 79  79 80  80 81  81 82  82 83  83 84  84 85  85 86  86 87  87 88  88 89  89 90  90 91  91 92  92 93  93 94  94 95  95 96  96 97  97 98  98 99  99 100  </DataArray>
<DataArray  type="UInt32"  Name="offsets"  format="ascii">2 4 6 8 10 12 14 16 18 20 22 24 26 28 30 32 34 36 38 40 42 44 46 48 50 52 54 56 58 60 62 64 66 68 70 72 74 76 78 80 82 84 86 88 90 92 94 96 98 100 102 104 106 108 110 112 114 116 118 120 122 124 126 128 130 132 134 136 138 140 142 144 146 148 150 152 154 156 158 160 162 164 166 168 170 172 174 176 178 180 182 184 186 188 190 192 194 196 198 200 </DataArray>
<DataArray  type="UInt8"  Name="types"  format="ascii">3 3 3 3 3 3 3 3 3 3 3 3 3 3 3 3 3 3 3 3 3 3 3 3 3 3 3 3 3 3 3 3 3 3 3 3 3 3 3 3 3 3 3 3 3 3 3 3 3 3 3 3 3 3 3 3 3 3 3 3 3 3 3 3 3 3 3 3 3 3 3 3 3 3 3 3 3 3 3 3 3 3 3 3 3 3 3 3 3 3 3 3 3 3 3 3 3 3 3 3 </DataArray>
</Cells>
<PointData  Scalars="f_44"> 
<DataArray  type="Float64"  Name="f_44"  format="ascii">0.0000000000000000e+00  4.5426261321379716e-04  3.8898181213339108e-04  4.0249205633170569e-04  3.9940615343381594e-04  4.0014609452827717e-04  3.9996325291934257e-04  4.0000939931697250e-04  3.9999756322691863e-04  4.0000063888165306e-04  3.9999983084918096e-04  4.0000004516470029e-04  3.9999998783870808e-04  4.0000000329024098e-04  3.9999999909587082e-04  4.0000000024157663e-04  3.9999999992625259e-04  4.0000000001295651e-04  3.9999999998825150e-04  3.9999999999441540e-04  3.9999999999177938e-04  3.9999999999142181e-04  3.9999999999018452e-04  3.9999999998890972e-04  3.9999999998729355e-04  3.9999999998534052e-04  3.9999999998294454e-04  3.9999999998000278e-04  3.9999999997637417e-04  3.9999999997187890e-04  3.9999999996628583e-04  3.9999999995929365e-04  3.9999999995051275e-04  3.9999999993943247e-04  3.9999999992538425e-04  3.9999999990748770e-04  3.9999999988457992e-04  3.9999999985511852e-04  3.9999999981704990e-04  3.9999999976762964e-04  3.9999999970317555e-04  3.9999999961873106e-04  3.9999999950759849e-04  3.9999999936069663e-04  3.9999999916567078e-04  3.9999999890565882e-04  3.9999999855757685e-04  3.9999999808973467e-04  3.9999999745851938e-04  3.9999999660378908e-04  3.9999999544248176e-04  3.9999999385980663e-04  3.9999999169718466e-04  3.9999998873596892e-04  3.9999998467590527e-04  3.9999997910758917e-04  3.9999997147912848e-04  3.9999996105967862e-04  3.9999994690746087e-04  3.9999992785873825e-04  3.9999990256739892e-04  3.9999986963913420e-04  3.9999982790752498e-04  3.9999977686698399e-04  3.9999971718260812e-04  3.9999965105405708e-04  3.9999958213019269e-04  3.9999951481792262e-04  3.9999945320501958e-04  3.9999940011807030e-04  3.9999935674279221e-04  3.9999932283725536e-04  3.9999929725658030e-04  3.9999927848121823e-04  3.9999926498791090e-04  3.9999925544450008e-04  3.9999924877634897e-04  3.9999924416047347e-04  3.9999924098809862e-04  3.9999923881997259e-04  3.9999923734274870e-04  3.9999923634095365e-04  3.9999923564539095e-04  3.9999923520445054e-04  3.9999923472548786e-04  3.9999923494219363e-04  3.9999923282463051e-04  3.9999923940285594e-04  3.9999921316822803e-04  3.9999930860750094e-04  3.9999894806868713e-04  4.0000028815603735e-04  3.9999526449278422e-04  4.0001405829090636e-04  3.9994343896620598e-04  4.0020988634630815e-04  3.9919507808209215e-04  4.0312696244874111e-04  3.8733029790822740e-04  4.5692462793758912e-04  0.0000000000000000e+00  </DataArray> 
</PointData> 
</Piece>
</UnstructuredGrid>
</VTKFile>