<?xml version="1.0"?>
<VTKFile type="UnstructuredGrid"  version="0.1"  >
<UnstructuredGrid>
<Piece  NumberOfPoints="101" NumberOfCells="100">
<Points>
<DataArray  type="Float64"  NumberOfComponents="3"  format="ascii">0 0 0  1e-07 0 0  2e-07 0 0  3e-07 0 0  4e-07 0 0  5e-07 0 0  6.000000000000001e-07 0 0  7.000000000000001e-07 0 0  8.000000000000001e-07 0 0  9.000000000000001e-07 0 0  1e-06 0 0  1.1e-06 0 0  1.2e-06 0 0  1.3e-06 0 0  1.4e-06 0 0  1.5e-06 0 0  1.6e-06 0 0  1.7e-06 0 0  1.8e-06 0 0  1.9e-06 0 0  2e-06 0 0  2.1e-06 0 0  2.2e-06 0 0  2.3e-06 0 0  2.4e-06 0 0  2.5e-06 0 0  2.600000000000001e-06 0 0  2.7e-06 0 0  2.8e-06 0 0  2.9e-06 0 0  3e-06 0 0  3.1e-06 0 0  3.2e-06 0 0  3.300000000000001e-06 0 0  3.4e-06 0 0  3.5e-06 0 0  3.6e-06 0 0  3.700000000000001e-06 0 0  3.8e-06 0 0  3.900000000000001e-06 0 0  4e-06 0 0  4.100000000000001e-06 0 0  4.2e-06 0 0  4.3e-06 0 0  4.4e-06 0 0  4.5e-06 0 0  4.6e-06 0 0  4.700000000000001e-06 0 0  4.800000000000001e-06 0 0  4.900000000000001e-06 0 0  5e-06 0 0  5.1e-06 0 0  5.200000000000001e-06 0 0  5.300000000000001e-06 0 0  5.4e-06 0 0  5.500000000000001e-06 0 0  5.600000000000001e-06 0 0  5.7e-06 0 0  5.8e-06 0 0  5.9e-06 0 0  6e-06 0 0  6.100000000000001e-06 0 0  6.2e-06 0 0  6.300000000000001e-06 0 0  6.400000000000001e-06 0 0  6.5e-06 0 0  6.600000000000001e-06 0 0  6.7e-06 0 0  6.8e-06 0 0  6.900000000000001e-06 0 0  7.000000000000001e-06 0 0  7.1e-06 0 0  7.200000000000001e-06 0 0  7.3e-06 0 0  7.400000000000001e-06 0 0  7.5e-06 0 0  7.6e-06 0 0  7.700000000000001e-06 0 0  7.800000000000002e-06 0 0  7.900000000000001e-06 0 0  8e-06 0 0  8.1e-06 0 0  8.200000000000001e-06 0 0  8.300000000000002e-06 0 0  8.400000000000001e-06 0 0  8.5e-06 0 0  8.600000000000001e-06 0 0  8.700000000000001e-06 0 0  8.8e-06 0 0  8.900000000000001e-06 0 0  9e-06 0 0  9.100000000000001e-06 0 0  9.2e-06 0 0  9.300000000000001e-06 0 0  9.400000000000001e-06 0 0  9.500000000000001e-06 0 0  9.600000000000001e-06 0 0  9.7e-06 0 0  9.800000000000001e-06 0 0  9.9e-06 0 0  1e-05 0 0  </DataArray>
</Points>
<Cells>
<DataArray  type="UInt32"  Name="connectivity"  format="ascii">0 1  1 2  2 3  3 4  4 5  5 6  6 7  7 8  8 9  9 10  10 11  11 12  12 13  13 14  14 15  15 16  16 17  17 18  18 19  19 20  20 21  21 22  22 23  23 24  24 25  25 26  26 27  27 28  28 29  29 30  30 31  31 32  32 33  33 34  34 35  35 36  36 37  37 38  38 39  39 40  40 41  41 42  42 43  43 44  44 45  45 46  46 47  47 48  48 49  49 50  50 51  51 52  52 53  53 54  54 55  55 56  56 57  57 58  58 59  59 60  60 61  61 62  62 63  63 64  64 65  65 66  66 67  67 68  68 69  69 70  70 71  71 72  72 73  73 74  74 75  75 76  76 77  77 78  78 79  79 80  80 81  81 82  82 83  83 84  84 85  85 86  86 87  87 88  88 89  89 90  90 91  91 92  92 93  93 94  94 95  95 96  96 97  97 98  98 99  99 100  </DataArray>
<DataArray  type="UInt32"  Name="offsets"  format="ascii">2 4 6 8 10 12 14 16 18 20 22 24 26 28 30 32 34 36 38 40 42 44 46 48 50 52 54 56 58 60 62 64 66 68 70 72 74 76 78 80 82 84 86 88 90 92 94 96 98 100 102 104 106 108 110 112 114 116 118 120 122 124 126 128 130 132 134 136 138 140 142 144 146 148 150 152 154 156 158 160 162 164 166 168 170 172 174 176 178 180 182 184 186 188 190 192 194 196 198 200 </DataArray>
<DataArray  type="UInt8"  Name="types"  format="ascii">3 3 3 3 3 3 3 3 3 3 3 3 3 3 3 3 3 3 3 3 3 3 3 3 3 3 3 3 3 3 3 3 3 3 3 3 3 3 3 3 3 3 3 3 3 3 3 3 3 3 3 3 3 3 3 3 3 3 3 3 3 3 3 3 3 3 3 3 3 3 3 3 3 3 3 3 3 3 3 3 3 3 3 3 3 3 3 3 3 3 3 3 3 3 3 3 3 3 3 3 </DataArray>
</Cells>
<PointData  Scalars="f_38"> 
<DataArray  type="Float64"  Name="f_38"  format="ascii">0.0000000000000000e+00  1.1943632008299850e+17  2.3381065525225469e+17  3.3931244873254982e+17  4.3354301490314778e+17  5.1521678359424672e+17  5.8387040193336128e+17  6.3963391684386637e+17  6.8305214834517517e+17  7.1494649096924941e+17  7.3630914468954944e+17  7.4822323763487309e+17  7.5180351079113216e+17  7.4815323203271744e+17  7.3833382849937549e+17  7.2334440212695782e+17  7.0410884780120960e+17  6.8146874782122637e+17  6.5618058740968435e+17  6.2891613830281510e+17  6.0026510300457293e+17  5.7073931109351398e+17  5.4077791933860749e+17  5.1075319621208275e+17  4.8097657440490752e+17  4.5170473689041293e+17  4.2314556685932544e+17  3.9546384269595872e+17  3.6878659874167853e+17  3.4320810308553760e+17  3.1879442682738189e+17  2.9558759664404435e+17  2.7360933525273142e+17  2.5286440348265430e+17  2.3334356392753008e+17  2.1502619019740419e+17  1.9788254813336189e+17  1.8187577640599155e+17  1.6696359401727024e+17  1.5309976162698106e+17  1.4023532253453826e+17  1.2831964772585379e+17  1.1730130776702246e+17  1.0712879258719645e+17  9.7751098413807760e+16  8.9118199357261904e+16  8.1181419427652000e+16  7.3893719129539536e+16  6.7209909239988112e+16  6.1086802940387504e+16  5.5483316149405672e+16  5.0360524693880416e+16  4.5681685854907456e+16  4.1412230833969080e+16  3.7519733793413696e+16  3.3973862330735356e+16  3.0746313540164632e+16  2.7810739191079304e+16  2.5142663003670156e+16  2.2719392521286060e+16  2.0519927659341628e+16  1.8524867646338368e+16  1.6716317757564086e+16  1.5077796970949752e+16  1.3594147442366028e+16  1.2251446499746328e+16  1.1036921687668772e+16  9.9388692526474000e+15  8.9465763409927380e+15  8.0502470826740840e+15  7.2409326534507340e+15  6.5104653412440280e+15  5.8513965891768460e+15  5.2569389450474680e+15  4.7209118135923470e+15  4.2376908822955035e+15  3.8021610724704005e+15  3.4096728537898780e+15  3.0560017514294315e+15  2.7373108697093730e+15  2.4501162538738285e+15  2.1912549118323282e+15  1.9578553198025252e+15  1.7473102393971892e+15  1.5572516784278762e+15  1.3855278332421065e+15  1.2301818565111995e+15  1.0894323008252094e+15  9.6165509504998750e+14  8.4536691701078762e+14  7.3920983256522662e+14  6.4193707741661625e+14  5.5239986401677481e+14  4.6953510155076081e+14  3.9235392223395269e+14  3.1993091194394969e+14  2.5139394752501869e+14  1.8591454691705094e+14  1.2269864155607200e+14  6.0977683255856672e+13  0.0000000000000000e+00  </DataArray> 
</PointData> 
</Piece>
</UnstructuredGrid>
</VTKFile>