<?xml version="1.0"?>
<VTKFile type="UnstructuredGrid"  version="0.1"  >
<UnstructuredGrid>
<Piece  NumberOfPoints="101" NumberOfCells="100">
<Points>
<DataArray  type="Float64"  NumberOfComponents="3"  format="ascii">0 0 0  1e-07 0 0  2e-07 0 0  3e-07 0 0  4e-07 0 0  5e-07 0 0  6.000000000000001e-07 0 0  7.000000000000001e-07 0 0  8.000000000000001e-07 0 0  9.000000000000001e-07 0 0  1e-06 0 0  1.1e-06 0 0  1.2e-06 0 0  1.3e-06 0 0  1.4e-06 0 0  1.5e-06 0 0  1.6e-06 0 0  1.7e-06 0 0  1.8e-06 0 0  1.9e-06 0 0  2e-06 0 0  2.1e-06 0 0  2.2e-06 0 0  2.3e-06 0 0  2.4e-06 0 0  2.5e-06 0 0  2.600000000000001e-06 0 0  2.7e-06 0 0  2.8e-06 0 0  2.9e-06 0 0  3e-06 0 0  3.1e-06 0 0  3.2e-06 0 0  3.300000000000001e-06 0 0  3.4e-06 0 0  3.5e-06 0 0  3.6e-06 0 0  3.700000000000001e-06 0 0  3.8e-06 0 0  3.900000000000001e-06 0 0  4e-06 0 0  4.100000000000001e-06 0 0  4.2e-06 0 0  4.3e-06 0 0  4.4e-06 0 0  4.5e-06 0 0  4.6e-06 0 0  4.700000000000001e-06 0 0  4.800000000000001e-06 0 0  4.900000000000001e-06 0 0  5e-06 0 0  5.1e-06 0 0  5.200000000000001e-06 0 0  5.300000000000001e-06 0 0  5.4e-06 0 0  5.500000000000001e-06 0 0  5.600000000000001e-06 0 0  5.7e-06 0 0  5.8e-06 0 0  5.9e-06 0 0  6e-06 0 0  6.100000000000001e-06 0 0  6.2e-06 0 0  6.300000000000001e-06 0 0  6.400000000000001e-06 0 0  6.5e-06 0 0  6.600000000000001e-06 0 0  6.7e-06 0 0  6.8e-06 0 0  6.900000000000001e-06 0 0  7.000000000000001e-06 0 0  7.1e-06 0 0  7.200000000000001e-06 0 0  7.3e-06 0 0  7.400000000000001e-06 0 0  7.5e-06 0 0  7.6e-06 0 0  7.700000000000001e-06 0 0  7.800000000000002e-06 0 0  7.900000000000001e-06 0 0  8e-06 0 0  8.1e-06 0 0  8.200000000000001e-06 0 0  8.300000000000002e-06 0 0  8.400000000000001e-06 0 0  8.5e-06 0 0  8.600000000000001e-06 0 0  8.700000000000001e-06 0 0  8.8e-06 0 0  8.900000000000001e-06 0 0  9e-06 0 0  9.100000000000001e-06 0 0  9.2e-06 0 0  9.300000000000001e-06 0 0  9.400000000000001e-06 0 0  9.500000000000001e-06 0 0  9.600000000000001e-06 0 0  9.7e-06 0 0  9.800000000000001e-06 0 0  9.9e-06 0 0  1e-05 0 0  </DataArray>
</Points>
<Cells>
<DataArray  type="UInt32"  Name="connectivity"  format="ascii">0 1  1 2  2 3  3 4  4 5  5 6  6 7  7 8  8 9  9 10  10 11  11 12  12 13  13 14  14 15  15 16  16 17  17 18  18 19  19 20  20 21  21 22  22 23  23 24  24 25  25 26  26 27  27 28  28 29  29 30  30 31  31 32  32 33  33 34  34 35  35 36  36 37  37 38  38 39  39 40  40 41  41 42  42 43  43 44  44 45  45 46  46 47  47 48  48 49  49 50  50 51  51 52  52 53  53 54  54 55  55 56  56 57  57 58  58 59  59 60  60 61  61 62  62 63  63 64  64 65  65 66  66 67  67 68  68 69  69 70  70 71  71 72  72 73  73 74  74 75  75 76  76 77  77 78  78 79  79 80  80 81  81 82  82 83  83 84  84 85  85 86  86 87  87 88  88 89  89 90  90 91  91 92  92 93  93 94  94 95  95 96  96 97  97 98  98 99  99 100  </DataArray>
<DataArray  type="UInt32"  Name="offsets"  format="ascii">2 4 6 8 10 12 14 16 18 20 22 24 26 28 30 32 34 36 38 40 42 44 46 48 50 52 54 56 58 60 62 64 66 68 70 72 74 76 78 80 82 84 86 88 90 92 94 96 98 100 102 104 106 108 110 112 114 116 118 120 122 124 126 128 130 132 134 136 138 140 142 144 146 148 150 152 154 156 158 160 162 164 166 168 170 172 174 176 178 180 182 184 186 188 190 192 194 196 198 200 </DataArray>
<DataArray  type="UInt8"  Name="types"  format="ascii">3 3 3 3 3 3 3 3 3 3 3 3 3 3 3 3 3 3 3 3 3 3 3 3 3 3 3 3 3 3 3 3 3 3 3 3 3 3 3 3 3 3 3 3 3 3 3 3 3 3 3 3 3 3 3 3 3 3 3 3 3 3 3 3 3 3 3 3 3 3 3 3 3 3 3 3 3 3 3 3 3 3 3 3 3 3 3 3 3 3 3 3 3 3 3 3 3 3 3 3 </DataArray>
</Cells>
<PointData  Scalars="f_44"> 
<DataArray  type="Float64"  Name="f_44"  format="ascii">0.0000000000000000e+00  4.2026439999655221e-04  3.7231811722768514e-04  3.8849609591115131e-04  3.8677437922109105e-04  3.8834612544750739e-04  3.8854411829675889e-04  3.8883355157793089e-04  3.8895270149120570e-04  3.8903473840766798e-04  3.8907927286641422e-04  3.8910626574215101e-04  3.8912183639143368e-04  3.8913102085765504e-04  3.8913637768280533e-04  3.8913951352020351e-04  3.8914134305068575e-04  3.8914241023569528e-04  3.8914303172142849e-04  3.8914339331898144e-04  3.8914360346130729e-04  3.8914372546790043e-04  3.8914379623520743e-04  3.8914383724619625e-04  3.8914386099294675e-04  3.8914387473242240e-04  3.8914388267603756e-04  3.8914388726557421e-04  3.8914388991554045e-04  3.8914389144468955e-04  3.8914389232657764e-04  3.8914389283490681e-04  3.8914389312776554e-04  3.8914389329640695e-04  3.8914389339347389e-04  3.8914389344931941e-04  3.8914389348143483e-04  3.8914389349989598e-04  3.8914389351050273e-04  3.8914389351659377e-04  3.8914389352008973e-04  3.8914389352209404e-04  3.8914389352324281e-04  3.8914389352389967e-04  3.8914389352427426e-04  3.8914389352448763e-04  3.8914389352460733e-04  3.8914389352467401e-04  3.8914389352470892e-04  3.8914389352472540e-04  3.8914389352472838e-04  3.8914389352472047e-04  3.8914389352469938e-04  3.8914389352465894e-04  3.8914389352458705e-04  3.8914389352446161e-04  3.8914389352424260e-04  3.8914389352386189e-04  3.8914389352319814e-04  3.8914389352204276e-04  3.8914389352003059e-04  3.8914389351652634e-04  3.8914389351042694e-04  3.8914389349981054e-04  3.8914389348133996e-04  3.8914389344921397e-04  3.8914389339335745e-04  3.8914389329627912e-04  3.8914389312762578e-04  3.8914389283475513e-04  3.8914389232641322e-04  3.8914389144451261e-04  3.8914388991535050e-04  3.8914388726537207e-04  3.8914388267582284e-04  3.8914387473219537e-04  3.8914386099270833e-04  3.8914383724594683e-04  3.8914379623494858e-04  3.8914372546763290e-04  3.8914360346103223e-04  3.8914339331870079e-04  3.8914303172114329e-04  3.8914241023540785e-04  3.8914134305039773e-04  3.8913951351991750e-04  3.8913637768252262e-04  3.8913102085737819e-04  3.8912183639116447e-04  3.8910626574189134e-04  3.8907927286616566e-04  3.8903473840743173e-04  3.8895270149098192e-04  3.8883355157771948e-04  3.8854411829655826e-04  3.8834612544731424e-04  3.8677437922090109e-04  3.8849609591094672e-04  3.7231811722747226e-04  4.2026439999609403e-04  0.0000000000000000e+00  </DataArray> 
</PointData> 
</Piece>
</UnstructuredGrid>
</VTKFile>