<?xml version="1.0"?>
<VTKFile type="UnstructuredGrid"  version="0.1"  >
<UnstructuredGrid>
<Piece  NumberOfPoints="101" NumberOfCells="100">
<Points>
<DataArray  type="Float64"  NumberOfComponents="3"  format="ascii">0 0 0  1e-07 0 0  2e-07 0 0  3e-07 0 0  4e-07 0 0  5e-07 0 0  6.000000000000001e-07 0 0  7.000000000000001e-07 0 0  8.000000000000001e-07 0 0  9.000000000000001e-07 0 0  1e-06 0 0  1.1e-06 0 0  1.2e-06 0 0  1.3e-06 0 0  1.4e-06 0 0  1.5e-06 0 0  1.6e-06 0 0  1.7e-06 0 0  1.8e-06 0 0  1.9e-06 0 0  2e-06 0 0  2.1e-06 0 0  2.2e-06 0 0  2.3e-06 0 0  2.4e-06 0 0  2.5e-06 0 0  2.600000000000001e-06 0 0  2.7e-06 0 0  2.8e-06 0 0  2.9e-06 0 0  3e-06 0 0  3.1e-06 0 0  3.2e-06 0 0  3.300000000000001e-06 0 0  3.4e-06 0 0  3.5e-06 0 0  3.6e-06 0 0  3.700000000000001e-06 0 0  3.8e-06 0 0  3.900000000000001e-06 0 0  4e-06 0 0  4.100000000000001e-06 0 0  4.2e-06 0 0  4.3e-06 0 0  4.4e-06 0 0  4.5e-06 0 0  4.6e-06 0 0  4.700000000000001e-06 0 0  4.800000000000001e-06 0 0  4.900000000000001e-06 0 0  5e-06 0 0  5.1e-06 0 0  5.200000000000001e-06 0 0  5.300000000000001e-06 0 0  5.4e-06 0 0  5.500000000000001e-06 0 0  5.600000000000001e-06 0 0  5.7e-06 0 0  5.8e-06 0 0  5.9e-06 0 0  6e-06 0 0  6.100000000000001e-06 0 0  6.2e-06 0 0  6.300000000000001e-06 0 0  6.400000000000001e-06 0 0  6.5e-06 0 0  6.600000000000001e-06 0 0  6.7e-06 0 0  6.8e-06 0 0  6.900000000000001e-06 0 0  7.000000000000001e-06 0 0  7.1e-06 0 0  7.200000000000001e-06 0 0  7.3e-06 0 0  7.400000000000001e-06 0 0  7.5e-06 0 0  7.6e-06 0 0  7.700000000000001e-06 0 0  7.800000000000002e-06 0 0  7.900000000000001e-06 0 0  8e-06 0 0  8.1e-06 0 0  8.200000000000001e-06 0 0  8.300000000000002e-06 0 0  8.400000000000001e-06 0 0  8.5e-06 0 0  8.600000000000001e-06 0 0  8.700000000000001e-06 0 0  8.8e-06 0 0  8.900000000000001e-06 0 0  9e-06 0 0  9.100000000000001e-06 0 0  9.2e-06 0 0  9.300000000000001e-06 0 0  9.400000000000001e-06 0 0  9.500000000000001e-06 0 0  9.600000000000001e-06 0 0  9.7e-06 0 0  9.800000000000001e-06 0 0  9.9e-06 0 0  1e-05 0 0  </DataArray>
</Points>
<Cells>
<DataArray  type="UInt32"  Name="connectivity"  format="ascii">0 1  1 2  2 3  3 4  4 5  5 6  6 7  7 8  8 9  9 10  10 11  11 12  12 13  13 14  14 15  15 16  16 17  17 18  18 19  19 20  20 21  21 22  22 23  23 24  24 25  25 26  26 27  27 28  28 29  29 30  30 31  31 32  32 33  33 34  34 35  35 36  36 37  37 38  38 39  39 40  40 41  41 42  42 43  43 44  44 45  45 46  46 47  47 48  48 49  49 50  50 51  51 52  52 53  53 54  54 55  55 56  56 57  57 58  58 59  59 60  60 61  61 62  62 63  63 64  64 65  65 66  66 67  67 68  68 69  69 70  70 71  71 72  72 73  73 74  74 75  75 76  76 77  77 78  78 79  79 80  80 81  81 82  82 83  83 84  84 85  85 86  86 87  87 88  88 89  89 90  90 91  91 92  92 93  93 94  94 95  95 96  96 97  97 98  98 99  99 100  </DataArray>
<DataArray  type="UInt32"  Name="offsets"  format="ascii">2 4 6 8 10 12 14 16 18 20 22 24 26 28 30 32 34 36 38 40 42 44 46 48 50 52 54 56 58 60 62 64 66 68 70 72 74 76 78 80 82 84 86 88 90 92 94 96 98 100 102 104 106 108 110 112 114 116 118 120 122 124 126 128 130 132 134 136 138 140 142 144 146 148 150 152 154 156 158 160 162 164 166 168 170 172 174 176 178 180 182 184 186 188 190 192 194 196 198 200 </DataArray>
<DataArray  type="UInt8"  Name="types"  format="ascii">3 3 3 3 3 3 3 3 3 3 3 3 3 3 3 3 3 3 3 3 3 3 3 3 3 3 3 3 3 3 3 3 3 3 3 3 3 3 3 3 3 3 3 3 3 3 3 3 3 3 3 3 3 3 3 3 3 3 3 3 3 3 3 3 3 3 3 3 3 3 3 3 3 3 3 3 3 3 3 3 3 3 3 3 3 3 3 3 3 3 3 3 3 3 3 3 3 3 3 3 </DataArray>
</Cells>
<PointData  Scalars="f_41"> 
<DataArray  type="Float64"  Name="f_41"  format="ascii">0.0000000000000000e+00  1.1486086204215537e-15  2.2809370587661782e-15  3.3814457121591519e-15  4.4360158461970899e-15  5.4325167123861283e-15  6.3612201606463544e-15  7.2150408572289600e-15  7.9895988230303765e-15  8.6831181098236937e-15  9.2961889197115785e-15  9.8314290848046889e-15  1.0293084231151001e-14  1.0686604642824091e-14  1.1018231881642648e-14  1.1294620946911603e-14  1.1522515525623516e-14  1.1708485836608929e-14  1.1858731547960254e-14  1.1978946734475782e-14  1.2074240013632180e-14  1.2149100780888276e-14  1.2207401621686719e-14  1.2252427190031840e-14  1.2286920777020893e-14  1.2313141141326243e-14  1.2332923686847591e-14  1.2347741565415385e-14  1.2358763632990019e-14  1.2366907329477995e-14  1.2372885460829194e-14  1.2377246543121513e-14  1.2380408846022750e-14  1.2382688580831512e-14  1.2384322852368796e-14  1.2385488068657361e-14  1.2386314507601971e-14  1.2386897700347851e-14  1.2387307225658905e-14  1.2387593432423323e-14  1.2387792527838726e-14  1.2387930393058616e-14  1.2388025419594871e-14  1.2388090600181928e-14  1.2388135057470492e-14  1.2388165152385188e-14  1.2388185280358064e-14  1.2388198436837011e-14  1.2388206612309722e-14  1.2388211060470787e-14  1.2388212470067334e-14  1.2388211060470096e-14  1.2388206612308334e-14  1.2388198436834900e-14  1.2388185280355241e-14  1.2388165152381636e-14  1.2388135057466210e-14  1.2388090600176881e-14  1.2388025419589050e-14  1.2387930393052008e-14  1.2387792527831307e-14  1.2387593432415075e-14  1.2387307225649797e-14  1.2386897700337894e-14  1.2386314507591124e-14  1.2385488068645639e-14  1.2384322852356179e-14  1.2382688580817992e-14  1.2380408846008333e-14  1.2377246543106211e-14  1.2372885460813016e-14  1.2366907329460965e-14  1.2358763632972152e-14  1.2347741565396733e-14  1.2332923686828192e-14  1.2313141141306153e-14  1.2286920777000179e-14  1.2252427190010566e-14  1.2207401621664981e-14  1.2149100780866149e-14  1.2074240013609775e-14  1.1978946734453204e-14  1.1858731547937607e-14  1.1708485836586336e-14  1.1522515525601118e-14  1.1294620946889530e-14  1.1018231881621031e-14  1.0686604642803091e-14  1.0293084231130772e-14  9.8314290847853934e-15  9.2961889196933685e-15  8.6831181098067379e-15  7.9895988230148344e-15  7.2150408572149641e-15  6.3612201606340482e-15  5.4325167123756601e-15  4.4360158461885560e-15  3.3814457121526706e-15  2.2809370587618087e-15  1.1486086204193652e-15  0.0000000000000000e+00  </DataArray> 
</PointData> 
</Piece>
</UnstructuredGrid>
</VTKFile>