<?xml version="1.0"?>
<VTKFile type="UnstructuredGrid"  version="0.1"  >
<UnstructuredGrid>
<Piece  NumberOfPoints="101" NumberOfCells="100">
<Points>
<DataArray  type="Float64"  NumberOfComponents="3"  format="ascii">0 0 0  1e-07 0 0  2e-07 0 0  3e-07 0 0  4e-07 0 0  5e-07 0 0  6.000000000000001e-07 0 0  7.000000000000001e-07 0 0  8.000000000000001e-07 0 0  9.000000000000001e-07 0 0  1e-06 0 0  1.1e-06 0 0  1.2e-06 0 0  1.3e-06 0 0  1.4e-06 0 0  1.5e-06 0 0  1.6e-06 0 0  1.7e-06 0 0  1.8e-06 0 0  1.9e-06 0 0  2e-06 0 0  2.1e-06 0 0  2.2e-06 0 0  2.3e-06 0 0  2.4e-06 0 0  2.5e-06 0 0  2.600000000000001e-06 0 0  2.7e-06 0 0  2.8e-06 0 0  2.9e-06 0 0  3e-06 0 0  3.1e-06 0 0  3.2e-06 0 0  3.300000000000001e-06 0 0  3.4e-06 0 0  3.5e-06 0 0  3.6e-06 0 0  3.700000000000001e-06 0 0  3.8e-06 0 0  3.900000000000001e-06 0 0  4e-06 0 0  4.100000000000001e-06 0 0  4.2e-06 0 0  4.3e-06 0 0  4.4e-06 0 0  4.5e-06 0 0  4.6e-06 0 0  4.700000000000001e-06 0 0  4.800000000000001e-06 0 0  4.900000000000001e-06 0 0  5e-06 0 0  5.1e-06 0 0  5.200000000000001e-06 0 0  5.300000000000001e-06 0 0  5.4e-06 0 0  5.500000000000001e-06 0 0  5.600000000000001e-06 0 0  5.7e-06 0 0  5.8e-06 0 0  5.9e-06 0 0  6e-06 0 0  6.100000000000001e-06 0 0  6.2e-06 0 0  6.300000000000001e-06 0 0  6.400000000000001e-06 0 0  6.5e-06 0 0  6.600000000000001e-06 0 0  6.7e-06 0 0  6.8e-06 0 0  6.900000000000001e-06 0 0  7.000000000000001e-06 0 0  7.1e-06 0 0  7.200000000000001e-06 0 0  7.3e-06 0 0  7.400000000000001e-06 0 0  7.5e-06 0 0  7.6e-06 0 0  7.700000000000001e-06 0 0  7.800000000000002e-06 0 0  7.900000000000001e-06 0 0  8e-06 0 0  8.1e-06 0 0  8.200000000000001e-06 0 0  8.300000000000002e-06 0 0  8.400000000000001e-06 0 0  8.5e-06 0 0  8.600000000000001e-06 0 0  8.700000000000001e-06 0 0  8.8e-06 0 0  8.900000000000001e-06 0 0  9e-06 0 0  9.100000000000001e-06 0 0  9.2e-06 0 0  9.300000000000001e-06 0 0  9.400000000000001e-06 0 0  9.500000000000001e-06 0 0  9.600000000000001e-06 0 0  9.7e-06 0 0  9.800000000000001e-06 0 0  9.9e-06 0 0  1e-05 0 0  </DataArray>
</Points>
<Cells>
<DataArray  type="UInt32"  Name="connectivity"  format="ascii">0 1  1 2  2 3  3 4  4 5  5 6  6 7  7 8  8 9  9 10  10 11  11 12  12 13  13 14  14 15  15 16  16 17  17 18  18 19  19 20  20 21  21 22  22 23  23 24  24 25  25 26  26 27  27 28  28 29  29 30  30 31  31 32  32 33  33 34  34 35  35 36  36 37  37 38  38 39  39 40  40 41  41 42  42 43  43 44  44 45  45 46  46 47  47 48  48 49  49 50  50 51  51 52  52 53  53 54  54 55  55 56  56 57  57 58  58 59  59 60  60 61  61 62  62 63  63 64  64 65  65 66  66 67  67 68  68 69  69 70  70 71  71 72  72 73  73 74  74 75  75 76  76 77  77 78  78 79  79 80  80 81  81 82  82 83  83 84  84 85  85 86  86 87  87 88  88 89  89 90  90 91  91 92  92 93  93 94  94 95  95 96  96 97  97 98  98 99  99 100  </DataArray>
<DataArray  type="UInt32"  Name="offsets"  format="ascii">2 4 6 8 10 12 14 16 18 20 22 24 26 28 30 32 34 36 38 40 42 44 46 48 50 52 54 56 58 60 62 64 66 68 70 72 74 76 78 80 82 84 86 88 90 92 94 96 98 100 102 104 106 108 110 112 114 116 118 120 122 124 126 128 130 132 134 136 138 140 142 144 146 148 150 152 154 156 158 160 162 164 166 168 170 172 174 176 178 180 182 184 186 188 190 192 194 196 198 200 </DataArray>
<DataArray  type="UInt8"  Name="types"  format="ascii">3 3 3 3 3 3 3 3 3 3 3 3 3 3 3 3 3 3 3 3 3 3 3 3 3 3 3 3 3 3 3 3 3 3 3 3 3 3 3 3 3 3 3 3 3 3 3 3 3 3 3 3 3 3 3 3 3 3 3 3 3 3 3 3 3 3 3 3 3 3 3 3 3 3 3 3 3 3 3 3 3 3 3 3 3 3 3 3 3 3 3 3 3 3 3 3 3 3 3 3 </DataArray>
</Cells>
<PointData  Scalars="f_38"> 
<DataArray  type="Float64"  Name="f_38"  format="ascii">0.0000000000000000e+00  4.0434205694379367e-04  5.0716548725107658e-04  5.7411502984443415e-04  6.1785973407995894e-04  6.4641754700493585e-04  6.6505951287003080e-04  6.7722200025273219e-04  6.8515117525783423e-04  6.9031641247976688e-04  6.9368179560558860e-04  6.9588363573697880e-04  6.9734713702089795e-04  6.9836370996125973e-04  6.9914317169669554e-04  6.9985027217045633e-04  7.0063184435168282e-04  7.0163878625090703e-04  7.0304562286925369e-04  7.0506924078053202e-04  7.0798725313734896e-04  7.1215506714166973e-04  7.1801882662351081e-04  7.2611877669704684e-04  7.3707420399592009e-04  7.5153732507958959e-04  7.7010054848311083e-04  7.9314195940165960e-04  8.2060198456545273e-04  8.5170600406434341e-04  8.8468670802276691e-04  9.1660669797290174e-04  9.4343214092679130e-04  9.6059108185405761e-04  9.6425370312067181e-04  9.5304216068508186e-04  9.2888389090002425e-04  8.9597666842859030e-04  8.5901306577946981e-04  8.2192132693666793e-04  7.8737595894609602e-04  7.5682597726599342e-04  7.3074515718750508e-04  7.0890240730590469e-04  6.9054471581535205e-04  6.7445863054291450e-04  6.5892960246357777e-04  6.4182462117624861e-04  6.2103533393195927e-04  6.0127699267661483e-04  6.0011281807177143e-04  5.7894409663472655e-04  5.5256412905018955e-04  5.0718067189092048e-04  4.0453824195668832e-04  1.1622257017678614e-04  -4.8274678997097729e-04  -4.7216648891078706e-04  -3.4931854901068641e-04  -2.4582829625123613e-04  -1.6813524252648712e-04  -1.1321356968092455e-04  -7.5433848972004114e-05  -4.9885217910100128e-05  -3.2799257904934675e-05  -2.1464614836892936e-05  -1.3991643651400701e-05  -9.0892163300211867e-06  -5.8865739382950095e-06  -3.8019428582747476e-06  -2.4493917606167187e-06  -1.5743662648668331e-06  -1.0097655568873077e-06  -6.4634652400030340e-07  -4.1294838408763653e-07  -2.6336681662425253e-07  -1.6768947031615843e-07  -1.0660323008295059e-07  -6.7669283904551172e-08  -4.2894652025403825e-08  -2.7154139037519891e-08  -1.7167963459023873e-08  -1.0841209414893824e-08  -6.8381290161755710e-09  -4.3084401209396786e-09  -2.7117335613358175e-09  -1.7050517525714065e-09  -1.0710494621042071e-09  -6.7216952552485925e-10  -4.2146203900496609e-10  -2.6403157204596009e-10  -1.6525916847887124e-10  -1.0333571705159483e-10  -6.4534642393255415e-11  -4.0222370329550671e-11  -2.4969431686306843e-11  -1.5357367451517233e-11  -9.2243471361655645e-12  -5.1861013845109108e-12  -2.3278752837870266e-12  0.0000000000000000e+00  </DataArray> 
</PointData> 
</Piece>
</UnstructuredGrid>
</VTKFile>