<?xml version="1.0"?>
<VTKFile type="UnstructuredGrid"  version="0.1"  >
<UnstructuredGrid>
<Piece  NumberOfPoints="101" NumberOfCells="100">
<Points>
<DataArray  type="Float64"  NumberOfComponents="3"  format="ascii">0 0 0  1e-07 0 0  2e-07 0 0  3e-07 0 0  4e-07 0 0  5e-07 0 0  6.000000000000001e-07 0 0  7.000000000000001e-07 0 0  8.000000000000001e-07 0 0  9.000000000000001e-07 0 0  1e-06 0 0  1.1e-06 0 0  1.2e-06 0 0  1.3e-06 0 0  1.4e-06 0 0  1.5e-06 0 0  1.6e-06 0 0  1.7e-06 0 0  1.8e-06 0 0  1.9e-06 0 0  2e-06 0 0  2.1e-06 0 0  2.2e-06 0 0  2.3e-06 0 0  2.4e-06 0 0  2.5e-06 0 0  2.600000000000001e-06 0 0  2.7e-06 0 0  2.8e-06 0 0  2.9e-06 0 0  3e-06 0 0  3.1e-06 0 0  3.2e-06 0 0  3.300000000000001e-06 0 0  3.4e-06 0 0  3.5e-06 0 0  3.6e-06 0 0  3.700000000000001e-06 0 0  3.8e-06 0 0  3.900000000000001e-06 0 0  4e-06 0 0  4.100000000000001e-06 0 0  4.2e-06 0 0  4.3e-06 0 0  4.4e-06 0 0  4.5e-06 0 0  4.6e-06 0 0  4.700000000000001e-06 0 0  4.800000000000001e-06 0 0  4.900000000000001e-06 0 0  5e-06 0 0  5.1e-06 0 0  5.200000000000001e-06 0 0  5.300000000000001e-06 0 0  5.4e-06 0 0  5.500000000000001e-06 0 0  5.600000000000001e-06 0 0  5.7e-06 0 0  5.8e-06 0 0  5.9e-06 0 0  6e-06 0 0  6.100000000000001e-06 0 0  6.2e-06 0 0  6.300000000000001e-06 0 0  6.400000000000001e-06 0 0  6.5e-06 0 0  6.600000000000001e-06 0 0  6.7e-06 0 0  6.8e-06 0 0  6.900000000000001e-06 0 0  7.000000000000001e-06 0 0  7.1e-06 0 0  7.200000000000001e-06 0 0  7.3e-06 0 0  7.400000000000001e-06 0 0  7.5e-06 0 0  7.6e-06 0 0  7.700000000000001e-06 0 0  7.800000000000002e-06 0 0  7.900000000000001e-06 0 0  8e-06 0 0  8.1e-06 0 0  8.200000000000001e-06 0 0  8.300000000000002e-06 0 0  8.400000000000001e-06 0 0  8.5e-06 0 0  8.600000000000001e-06 0 0  8.700000000000001e-06 0 0  8.8e-06 0 0  8.900000000000001e-06 0 0  9e-06 0 0  9.100000000000001e-06 0 0  9.2e-06 0 0  9.300000000000001e-06 0 0  9.400000000000001e-06 0 0  9.500000000000001e-06 0 0  9.600000000000001e-06 0 0  9.7e-06 0 0  9.800000000000001e-06 0 0  9.9e-06 0 0  1e-05 0 0  </DataArray>
</Points>
<Cells>
<DataArray  type="UInt32"  Name="connectivity"  format="ascii">0 1  1 2  2 3  3 4  4 5  5 6  6 7  7 8  8 9  9 10  10 11  11 12  12 13  13 14  14 15  15 16  16 17  17 18  18 19  19 20  20 21  21 22  22 23  23 24  24 25  25 26  26 27  27 28  28 29  29 30  30 31  31 32  32 33  33 34  34 35  35 36  36 37  37 38  38 39  39 40  40 41  41 42  42 43  43 44  44 45  45 46  46 47  47 48  48 49  49 50  50 51  51 52  52 53  53 54  54 55  55 56  56 57  57 58  58 59  59 60  60 61  61 62  62 63  63 64  64 65  65 66  66 67  67 68  68 69  69 70  70 71  71 72  72 73  73 74  74 75  75 76  76 77  77 78  78 79  79 80  80 81  81 82  82 83  83 84  84 85  85 86  86 87  87 88  88 89  89 90  90 91  91 92  92 93  93 94  94 95  95 96  96 97  97 98  98 99  99 100  </DataArray>
<DataArray  type="UInt32"  Name="offsets"  format="ascii">2 4 6 8 10 12 14 16 18 20 22 24 26 28 30 32 34 36 38 40 42 44 46 48 50 52 54 56 58 60 62 64 66 68 70 72 74 76 78 80 82 84 86 88 90 92 94 96 98 100 102 104 106 108 110 112 114 116 118 120 122 124 126 128 130 132 134 136 138 140 142 144 146 148 150 152 154 156 158 160 162 164 166 168 170 172 174 176 178 180 182 184 186 188 190 192 194 196 198 200 </DataArray>
<DataArray  type="UInt8"  Name="types"  format="ascii">3 3 3 3 3 3 3 3 3 3 3 3 3 3 3 3 3 3 3 3 3 3 3 3 3 3 3 3 3 3 3 3 3 3 3 3 3 3 3 3 3 3 3 3 3 3 3 3 3 3 3 3 3 3 3 3 3 3 3 3 3 3 3 3 3 3 3 3 3 3 3 3 3 3 3 3 3 3 3 3 3 3 3 3 3 3 3 3 3 3 3 3 3 3 3 3 3 3 3 3 </DataArray>
</Cells>
<PointData  Scalars="f_41"> 
<DataArray  type="Float64"  Name="f_41"  format="ascii">0.0000000000000000e+00  6.0963569956243182e-08  1.1912110997405174e-07  1.7234459883135016e-07  2.1937002792361174e-07  2.5971954561346244e-07  2.9350630996762724e-07  3.2122547280438951e-07  3.4357757266860206e-07  3.6133854300810996e-07  3.7527382103018613e-07  3.8608785981036770e-07  3.9439927638752848e-07  4.0073308852443917e-07  4.0552340735480428e-07  4.0912183856267308e-07  4.1180841329823357e-07  4.1380305922330652e-07  4.1527646612982208e-07  4.1635976726447254e-07  4.1715281738876637e-07  4.1773106263606484e-07  4.1815111315463125e-07  4.1845518251400923e-07  4.1867457258640979e-07  4.1883237571832056e-07  4.1894554822432124e-07  4.1902648719807376e-07  4.1908422020699444e-07  4.1912529667851802e-07  4.1915445163336888e-07  4.1917509714201151e-07  4.1918968436996012e-07  4.1919996904752732e-07  4.1920720529096649e-07  4.1921228655027865e-07  4.1921584772781199e-07  4.1921833890812792e-07  4.1922007841749813e-07  4.1922129089022822e-07  4.1922213449824662e-07  4.1922272037396905e-07  4.1922312642639895e-07  4.1922340714165757e-07  4.1922360051448289e-07  4.1922373293365742e-07  4.1922382260949819e-07  4.1922388196139670e-07  4.1922391926007262e-07  4.1922393972940470e-07  4.1922394624658552e-07  4.1922393972940486e-07  4.1922391926007272e-07  4.1922388196139691e-07  4.1922382260949834e-07  4.1922373293365732e-07  4.1922360051448257e-07  4.1922340714165730e-07  4.1922312642639800e-07  4.1922272037396800e-07  4.1922213449824567e-07  4.1922129089022690e-07  4.1922007841749665e-07  4.1921833890812670e-07  4.1921584772781130e-07  4.1921228655027754e-07  4.1920720529096591e-07  4.1919996904752674e-07  4.1918968436995943e-07  4.1917509714201129e-07  4.1915445163336893e-07  4.1912529667851829e-07  4.1908422020699429e-07  4.1902648719807392e-07  4.1894554822432130e-07  4.1883237571832051e-07  4.1867457258641001e-07  4.1845518251400950e-07  4.1815111315463141e-07  4.1773106263606537e-07  4.1715281738876668e-07  4.1635976726447281e-07  4.1527646612982261e-07  4.1380305922330678e-07  4.1180841329823399e-07  4.0912183856267355e-07  4.0552340735480497e-07  4.0073308852443944e-07  3.9439927638752912e-07  3.8608785981036817e-07  3.7527382103018660e-07  3.6133854300811038e-07  3.4357757266860238e-07  3.2122547280438961e-07  2.9350630996762703e-07  2.5971954561346238e-07  2.1937002792361153e-07  1.7234459883135037e-07  1.1912110997405161e-07  6.0963569956243619e-08  0.0000000000000000e+00  </DataArray> 
</PointData> 
</Piece>
</UnstructuredGrid>
</VTKFile>