<?xml version="1.0"?>
<VTKFile type="UnstructuredGrid"  version="0.1"  >
<UnstructuredGrid>
<Piece  NumberOfPoints="101" NumberOfCells="100">
<Points>
<DataArray  type="Float64"  NumberOfComponents="3"  format="ascii">0 0 0  1e-07 0 0  2e-07 0 0  3e-07 0 0  4e-07 0 0  5e-07 0 0  6.000000000000001e-07 0 0  7.000000000000001e-07 0 0  8.000000000000001e-07 0 0  9.000000000000001e-07 0 0  1e-06 0 0  1.1e-06 0 0  1.2e-06 0 0  1.3e-06 0 0  1.4e-06 0 0  1.5e-06 0 0  1.6e-06 0 0  1.7e-06 0 0  1.8e-06 0 0  1.9e-06 0 0  2e-06 0 0  2.1e-06 0 0  2.2e-06 0 0  2.3e-06 0 0  2.4e-06 0 0  2.5e-06 0 0  2.600000000000001e-06 0 0  2.7e-06 0 0  2.8e-06 0 0  2.9e-06 0 0  3e-06 0 0  3.1e-06 0 0  3.2e-06 0 0  3.300000000000001e-06 0 0  3.4e-06 0 0  3.5e-06 0 0  3.6e-06 0 0  3.700000000000001e-06 0 0  3.8e-06 0 0  3.900000000000001e-06 0 0  4e-06 0 0  4.100000000000001e-06 0 0  4.2e-06 0 0  4.3e-06 0 0  4.4e-06 0 0  4.5e-06 0 0  4.6e-06 0 0  4.700000000000001e-06 0 0  4.800000000000001e-06 0 0  4.900000000000001e-06 0 0  5e-06 0 0  5.1e-06 0 0  5.200000000000001e-06 0 0  5.300000000000001e-06 0 0  5.4e-06 0 0  5.500000000000001e-06 0 0  5.600000000000001e-06 0 0  5.7e-06 0 0  5.8e-06 0 0  5.9e-06 0 0  6e-06 0 0  6.100000000000001e-06 0 0  6.2e-06 0 0  6.300000000000001e-06 0 0  6.400000000000001e-06 0 0  6.5e-06 0 0  6.600000000000001e-06 0 0  6.7e-06 0 0  6.8e-06 0 0  6.900000000000001e-06 0 0  7.000000000000001e-06 0 0  7.1e-06 0 0  7.200000000000001e-06 0 0  7.3e-06 0 0  7.400000000000001e-06 0 0  7.5e-06 0 0  7.6e-06 0 0  7.700000000000001e-06 0 0  7.800000000000002e-06 0 0  7.900000000000001e-06 0 0  8e-06 0 0  8.1e-06 0 0  8.200000000000001e-06 0 0  8.300000000000002e-06 0 0  8.400000000000001e-06 0 0  8.5e-06 0 0  8.600000000000001e-06 0 0  8.700000000000001e-06 0 0  8.8e-06 0 0  8.900000000000001e-06 0 0  9e-06 0 0  9.100000000000001e-06 0 0  9.2e-06 0 0  9.300000000000001e-06 0 0  9.400000000000001e-06 0 0  9.500000000000001e-06 0 0  9.600000000000001e-06 0 0  9.7e-06 0 0  9.800000000000001e-06 0 0  9.9e-06 0 0  1e-05 0 0  </DataArray>
</Points>
<Cells>
<DataArray  type="UInt32"  Name="connectivity"  format="ascii">0 1  1 2  2 3  3 4  4 5  5 6  6 7  7 8  8 9  9 10  10 11  11 12  12 13  13 14  14 15  15 16  16 17  17 18  18 19  19 20  20 21  21 22  22 23  23 24  24 25  25 26  26 27  27 28  28 29  29 30  30 31  31 32  32 33  33 34  34 35  35 36  36 37  37 38  38 39  39 40  40 41  41 42  42 43  43 44  44 45  45 46  46 47  47 48  48 49  49 50  50 51  51 52  52 53  53 54  54 55  55 56  56 57  57 58  58 59  59 60  60 61  61 62  62 63  63 64  64 65  65 66  66 67  67 68  68 69  69 70  70 71  71 72  72 73  73 74  74 75  75 76  76 77  77 78  78 79  79 80  80 81  81 82  82 83  83 84  84 85  85 86  86 87  87 88  88 89  89 90  90 91  91 92  92 93  93 94  94 95  95 96  96 97  97 98  98 99  99 100  </DataArray>
<DataArray  type="UInt32"  Name="offsets"  format="ascii">2 4 6 8 10 12 14 16 18 20 22 24 26 28 30 32 34 36 38 40 42 44 46 48 50 52 54 56 58 60 62 64 66 68 70 72 74 76 78 80 82 84 86 88 90 92 94 96 98 100 102 104 106 108 110 112 114 116 118 120 122 124 126 128 130 132 134 136 138 140 142 144 146 148 150 152 154 156 158 160 162 164 166 168 170 172 174 176 178 180 182 184 186 188 190 192 194 196 198 200 </DataArray>
<DataArray  type="UInt8"  Name="types"  format="ascii">3 3 3 3 3 3 3 3 3 3 3 3 3 3 3 3 3 3 3 3 3 3 3 3 3 3 3 3 3 3 3 3 3 3 3 3 3 3 3 3 3 3 3 3 3 3 3 3 3 3 3 3 3 3 3 3 3 3 3 3 3 3 3 3 3 3 3 3 3 3 3 3 3 3 3 3 3 3 3 3 3 3 3 3 3 3 3 3 3 3 3 3 3 3 3 3 3 3 3 3 </DataArray>
</Cells>
<PointData  Scalars="f_38"> 
<DataArray  type="Float64"  Name="f_38"  format="ascii">0.0000000000000000e+00  7.7518006497622710e-05  1.4708883109737077e-04  2.0884593511709686e-04  2.6370976835675441e-04  3.1244284998455953e-04  3.5573075029791783e-04  3.9418140219478037e-04  4.2833516863813797e-04  4.5867205347119419e-04  4.8561847116513907e-04  5.0955320620970723e-04  5.3081272717013029e-04  5.4969590776080262e-04  5.6646822316323896e-04  5.8136547856825276e-04  5.9459712186034699e-04  6.0634918655260708e-04  6.1678690608796402e-04  6.2605703608456455e-04  6.3428991705802838e-04  6.4160130654163582e-04  6.4809400630818834e-04  6.5385930753305503e-04  6.5897827418956478e-04  6.6352288270134880e-04  6.6755703386076276e-04  6.7113745123052217e-04  6.7431447865247071e-04  6.7713278807089369e-04  6.7963200761830312e-04  6.8184727879160316e-04  6.8380975055035847e-04  6.8554701728260645e-04  6.8708350679486736e-04  6.8844082378067466e-04  6.8963805359621277e-04  6.9069203061374539e-04  6.9161757492560946e-04  6.9242770072665727e-04  6.9313379930489242e-04  6.9374579921309095e-04  6.9427230587339346e-04  6.9472072257770580e-04  6.9509735458519095e-04  6.9540749778048132e-04  6.9565551313917405e-04  6.9584488804762419e-04  6.9597828533921578e-04  6.9605758073658798e-04  6.9608388922627292e-04  6.9605758073658667e-04  6.9597828533921394e-04  6.9584488804762203e-04  6.9565551313917145e-04  6.9540749778047807e-04  6.9509735458518759e-04  6.9472072257770212e-04  6.9427230587338978e-04  6.9374579921308726e-04  6.9313379930488808e-04  6.9242770072665250e-04  6.9161757492560414e-04  6.9069203061373921e-04  6.8963805359620605e-04  6.8844082378066718e-04  6.8708350679485934e-04  6.8554701728259810e-04  6.8380975055034948e-04  6.8184727879159362e-04  6.7963200761829337e-04  6.7713278807088383e-04  6.7431447865246063e-04  6.7113745123051219e-04  6.6755703386075311e-04  6.6352288270133948e-04  6.5897827418955567e-04  6.5385930753304635e-04  6.4809400630818010e-04  6.4160130654162823e-04  6.3428991705802144e-04  6.2605703608455815e-04  6.1678690608795795e-04  6.0634918655260123e-04  5.9459712186034157e-04  5.8136547856824756e-04  5.6646822316323397e-04  5.4969590776079785e-04  5.3081272717012606e-04  5.0955320620970300e-04  4.8561847116513550e-04  4.5867205347119067e-04  4.2833516863813504e-04  3.9418140219477771e-04  3.5573075029791523e-04  3.1244284998455769e-04  2.6370976835675256e-04  2.0884593511709588e-04  1.4708883109736972e-04  7.7518006497622778e-05  0.0000000000000000e+00  </DataArray> 
</PointData> 
</Piece>
</UnstructuredGrid>
</VTKFile>