<?xml version="1.0"?>
<VTKFile type="UnstructuredGrid"  version="0.1"  >
<UnstructuredGrid>
<Piece  NumberOfPoints="101" NumberOfCells="100">
<Points>
<DataArray  type="Float64"  NumberOfComponents="3"  format="ascii">0 0 0  1e-07 0 0  2e-07 0 0  3e-07 0 0  4e-07 0 0  5e-07 0 0  6.000000000000001e-07 0 0  7.000000000000001e-07 0 0  8.000000000000001e-07 0 0  9.000000000000001e-07 0 0  1e-06 0 0  1.1e-06 0 0  1.2e-06 0 0  1.3e-06 0 0  1.4e-06 0 0  1.5e-06 0 0  1.6e-06 0 0  1.7e-06 0 0  1.8e-06 0 0  1.9e-06 0 0  2e-06 0 0  2.1e-06 0 0  2.2e-06 0 0  2.3e-06 0 0  2.4e-06 0 0  2.5e-06 0 0  2.600000000000001e-06 0 0  2.7e-06 0 0  2.8e-06 0 0  2.9e-06 0 0  3e-06 0 0  3.1e-06 0 0  3.2e-06 0 0  3.300000000000001e-06 0 0  3.4e-06 0 0  3.5e-06 0 0  3.6e-06 0 0  3.700000000000001e-06 0 0  3.8e-06 0 0  3.900000000000001e-06 0 0  4e-06 0 0  4.100000000000001e-06 0 0  4.2e-06 0 0  4.3e-06 0 0  4.4e-06 0 0  4.5e-06 0 0  4.6e-06 0 0  4.700000000000001e-06 0 0  4.800000000000001e-06 0 0  4.900000000000001e-06 0 0  5e-06 0 0  5.1e-06 0 0  5.200000000000001e-06 0 0  5.300000000000001e-06 0 0  5.4e-06 0 0  5.500000000000001e-06 0 0  5.600000000000001e-06 0 0  5.7e-06 0 0  5.8e-06 0 0  5.9e-06 0 0  6e-06 0 0  6.100000000000001e-06 0 0  6.2e-06 0 0  6.300000000000001e-06 0 0  6.400000000000001e-06 0 0  6.5e-06 0 0  6.600000000000001e-06 0 0  6.7e-06 0 0  6.8e-06 0 0  6.900000000000001e-06 0 0  7.000000000000001e-06 0 0  7.1e-06 0 0  7.200000000000001e-06 0 0  7.3e-06 0 0  7.400000000000001e-06 0 0  7.5e-06 0 0  7.6e-06 0 0  7.700000000000001e-06 0 0  7.800000000000002e-06 0 0  7.900000000000001e-06 0 0  8e-06 0 0  8.1e-06 0 0  8.200000000000001e-06 0 0  8.300000000000002e-06 0 0  8.400000000000001e-06 0 0  8.5e-06 0 0  8.600000000000001e-06 0 0  8.700000000000001e-06 0 0  8.8e-06 0 0  8.900000000000001e-06 0 0  9e-06 0 0  9.100000000000001e-06 0 0  9.2e-06 0 0  9.300000000000001e-06 0 0  9.400000000000001e-06 0 0  9.500000000000001e-06 0 0  9.600000000000001e-06 0 0  9.7e-06 0 0  9.800000000000001e-06 0 0  9.9e-06 0 0  1e-05 0 0  </DataArray>
</Points>
<Cells>
<DataArray  type="UInt32"  Name="connectivity"  format="ascii">0 1  1 2  2 3  3 4  4 5  5 6  6 7  7 8  8 9  9 10  10 11  11 12  12 13  13 14  14 15  15 16  16 17  17 18  18 19  19 20  20 21  21 22  22 23  23 24  24 25  25 26  26 27  27 28  28 29  29 30  30 31  31 32  32 33  33 34  34 35  35 36  36 37  37 38  38 39  39 40  40 41  41 42  42 43  43 44  44 45  45 46  46 47  47 48  48 49  49 50  50 51  51 52  52 53  53 54  54 55  55 56  56 57  57 58  58 59  59 60  60 61  61 62  62 63  63 64  64 65  65 66  66 67  67 68  68 69  69 70  70 71  71 72  72 73  73 74  74 75  75 76  76 77  77 78  78 79  79 80  80 81  81 82  82 83  83 84  84 85  85 86  86 87  87 88  88 89  89 90  90 91  91 92  92 93  93 94  94 95  95 96  96 97  97 98  98 99  99 100  </DataArray>
<DataArray  type="UInt32"  Name="offsets"  format="ascii">2 4 6 8 10 12 14 16 18 20 22 24 26 28 30 32 34 36 38 40 42 44 46 48 50 52 54 56 58 60 62 64 66 68 70 72 74 76 78 80 82 84 86 88 90 92 94 96 98 100 102 104 106 108 110 112 114 116 118 120 122 124 126 128 130 132 134 136 138 140 142 144 146 148 150 152 154 156 158 160 162 164 166 168 170 172 174 176 178 180 182 184 186 188 190 192 194 196 198 200 </DataArray>
<DataArray  type="UInt8"  Name="types"  format="ascii">3 3 3 3 3 3 3 3 3 3 3 3 3 3 3 3 3 3 3 3 3 3 3 3 3 3 3 3 3 3 3 3 3 3 3 3 3 3 3 3 3 3 3 3 3 3 3 3 3 3 3 3 3 3 3 3 3 3 3 3 3 3 3 3 3 3 3 3 3 3 3 3 3 3 3 3 3 3 3 3 3 3 3 3 3 3 3 3 3 3 3 3 3 3 3 3 3 3 3 3 </DataArray>
</Cells>
<PointData  Scalars="f_38"> 
<DataArray  type="Float64"  Name="f_38"  format="ascii">0.0000000000000000e+00  2.7404693795578991e-07  5.4140826091844578e-07  7.9605018172358563e-07  1.0330836974210763e-06  1.2490353778354584e-06  1.4418982285423294e-06  1.6110100767805574e-06  1.7568241206646440e-06  1.8806327201868247e-06  1.9842914369742904e-06  2.0699735798815369e-06  2.1399706117424020e-06  2.1965425946790733e-06  2.2418156128112523e-06  2.2777191988543079e-06  2.3059553151208096e-06  2.3279905394227182e-06  2.3450640858923224e-06  2.3582056499634129e-06  2.3682584835174089e-06  2.3759043973542874e-06  2.3816884686235739e-06  2.3860420785136294e-06  2.3893035344059499e-06  2.3917359725053207e-06  2.3935425290172982e-06  2.3948789464510529e-06  2.3958638781472434e-06  2.3965871943499707e-06  2.3971165968605621e-06  2.3975028311045083e-06  2.3977837545750802e-06  2.3979874859823841e-06  2.3981348244125814e-06  2.3982410949621803e-06  2.3983175479887689e-06  2.3983724138284384e-06  2.3984116935808805e-06  2.3984397490747289e-06  2.3984597409725781e-06  2.3984739526805769e-06  2.3984840288206679e-06  2.3984911500707038e-06  2.3984961607972757e-06  2.3984996617728468e-06  2.3985020771121393e-06  2.3985037021612883e-06  2.3985047372483858e-06  2.3985053108124761e-06  2.3985054943551666e-06  2.3985053108124765e-06  2.3985047372483866e-06  2.3985037021612883e-06  2.3985020771121389e-06  2.3984996617728451e-06  2.3984961607972732e-06  2.3984911500707000e-06  2.3984840288206628e-06  2.3984739526805706e-06  2.3984597409725701e-06  2.3984397490747204e-06  2.3984116935808721e-06  2.3983724138284308e-06  2.3983175479887621e-06  2.3982410949621739e-06  2.3981348244125750e-06  2.3979874859823786e-06  2.3977837545750764e-06  2.3975028311045062e-06  2.3971165968605609e-06  2.3965871943499703e-06  2.3958638781472430e-06  2.3948789464510533e-06  2.3935425290172986e-06  2.3917359725053212e-06  2.3893035344059512e-06  2.3860420785136311e-06  2.3816884686235764e-06  2.3759043973542907e-06  2.3682584835174123e-06  2.3582056499634163e-06  2.3450640858923258e-06  2.3279905394227216e-06  2.3059553151208134e-06  2.2777191988543117e-06  2.2418156128112557e-06  2.1965425946790763e-06  2.1399706117424058e-06  2.0699735798815399e-06  1.9842914369742942e-06  1.8806327201868264e-06  1.7568241206646469e-06  1.6110100767805589e-06  1.4418982285423288e-06  1.2490353778354594e-06  1.0330836974210755e-06  7.9605018172358701e-07  5.4140826091844525e-07  2.7404693795579209e-07  0.0000000000000000e+00  </DataArray> 
</PointData> 
</Piece>
</UnstructuredGrid>
</VTKFile>