<?xml version="1.0"?>
<VTKFile type="UnstructuredGrid"  version="0.1"  >
<UnstructuredGrid>
<Piece  NumberOfPoints="101" NumberOfCells="100">
<Points>
<DataArray  type="Float64"  NumberOfComponents="3"  format="ascii">0 0 0  1e-07 0 0  2e-07 0 0  3e-07 0 0  4e-07 0 0  5e-07 0 0  6.000000000000001e-07 0 0  7.000000000000001e-07 0 0  8.000000000000001e-07 0 0  9.000000000000001e-07 0 0  1e-06 0 0  1.1e-06 0 0  1.2e-06 0 0  1.3e-06 0 0  1.4e-06 0 0  1.5e-06 0 0  1.6e-06 0 0  1.7e-06 0 0  1.8e-06 0 0  1.9e-06 0 0  2e-06 0 0  2.1e-06 0 0  2.2e-06 0 0  2.3e-06 0 0  2.4e-06 0 0  2.5e-06 0 0  2.600000000000001e-06 0 0  2.7e-06 0 0  2.8e-06 0 0  2.9e-06 0 0  3e-06 0 0  3.1e-06 0 0  3.2e-06 0 0  3.300000000000001e-06 0 0  3.4e-06 0 0  3.5e-06 0 0  3.6e-06 0 0  3.700000000000001e-06 0 0  3.8e-06 0 0  3.900000000000001e-06 0 0  4e-06 0 0  4.100000000000001e-06 0 0  4.2e-06 0 0  4.3e-06 0 0  4.4e-06 0 0  4.5e-06 0 0  4.6e-06 0 0  4.700000000000001e-06 0 0  4.800000000000001e-06 0 0  4.900000000000001e-06 0 0  5e-06 0 0  5.1e-06 0 0  5.200000000000001e-06 0 0  5.300000000000001e-06 0 0  5.4e-06 0 0  5.500000000000001e-06 0 0  5.600000000000001e-06 0 0  5.7e-06 0 0  5.8e-06 0 0  5.9e-06 0 0  6e-06 0 0  6.100000000000001e-06 0 0  6.2e-06 0 0  6.300000000000001e-06 0 0  6.400000000000001e-06 0 0  6.5e-06 0 0  6.600000000000001e-06 0 0  6.7e-06 0 0  6.8e-06 0 0  6.900000000000001e-06 0 0  7.000000000000001e-06 0 0  7.1e-06 0 0  7.200000000000001e-06 0 0  7.3e-06 0 0  7.400000000000001e-06 0 0  7.5e-06 0 0  7.6e-06 0 0  7.700000000000001e-06 0 0  7.800000000000002e-06 0 0  7.900000000000001e-06 0 0  8e-06 0 0  8.1e-06 0 0  8.200000000000001e-06 0 0  8.300000000000002e-06 0 0  8.400000000000001e-06 0 0  8.5e-06 0 0  8.600000000000001e-06 0 0  8.700000000000001e-06 0 0  8.8e-06 0 0  8.900000000000001e-06 0 0  9e-06 0 0  9.100000000000001e-06 0 0  9.2e-06 0 0  9.300000000000001e-06 0 0  9.400000000000001e-06 0 0  9.500000000000001e-06 0 0  9.600000000000001e-06 0 0  9.7e-06 0 0  9.800000000000001e-06 0 0  9.9e-06 0 0  1e-05 0 0  </DataArray>
</Points>
<Cells>
<DataArray  type="UInt32"  Name="connectivity"  format="ascii">0 1  1 2  2 3  3 4  4 5  5 6  6 7  7 8  8 9  9 10  10 11  11 12  12 13  13 14  14 15  15 16  16 17  17 18  18 19  19 20  20 21  21 22  22 23  23 24  24 25  25 26  26 27  27 28  28 29  29 30  30 31  31 32  32 33  33 34  34 35  35 36  36 37  37 38  38 39  39 40  40 41  41 42  42 43  43 44  44 45  45 46  46 47  47 48  48 49  49 50  50 51  51 52  52 53  53 54  54 55  55 56  56 57  57 58  58 59  59 60  60 61  61 62  62 63  63 64  64 65  65 66  66 67  67 68  68 69  69 70  70 71  71 72  72 73  73 74  74 75  75 76  76 77  77 78  78 79  79 80  80 81  81 82  82 83  83 84  84 85  85 86  86 87  87 88  88 89  89 90  90 91  91 92  92 93  93 94  94 95  95 96  96 97  97 98  98 99  99 100  </DataArray>
<DataArray  type="UInt32"  Name="offsets"  format="ascii">2 4 6 8 10 12 14 16 18 20 22 24 26 28 30 32 34 36 38 40 42 44 46 48 50 52 54 56 58 60 62 64 66 68 70 72 74 76 78 80 82 84 86 88 90 92 94 96 98 100 102 104 106 108 110 112 114 116 118 120 122 124 126 128 130 132 134 136 138 140 142 144 146 148 150 152 154 156 158 160 162 164 166 168 170 172 174 176 178 180 182 184 186 188 190 192 194 196 198 200 </DataArray>
<DataArray  type="UInt8"  Name="types"  format="ascii">3 3 3 3 3 3 3 3 3 3 3 3 3 3 3 3 3 3 3 3 3 3 3 3 3 3 3 3 3 3 3 3 3 3 3 3 3 3 3 3 3 3 3 3 3 3 3 3 3 3 3 3 3 3 3 3 3 3 3 3 3 3 3 3 3 3 3 3 3 3 3 3 3 3 3 3 3 3 3 3 3 3 3 3 3 3 3 3 3 3 3 3 3 3 3 3 3 3 3 3 </DataArray>
</Cells>
<PointData  Scalars="f_44"> 
<DataArray  type="Float64"  Name="f_44"  format="ascii">0.0000000000000000e+00  4.5479302876583140e-04  3.8867408725277541e-04  4.0259691572560127e-04  3.9937104753764177e-04  4.0015322020181256e-04  3.9995908492925766e-04  4.0000839747615083e-04  3.9999595482790451e-04  3.9999929428084302e-04  3.9999852827325813e-04  3.9999880880885218e-04  3.9999880065505467e-04  3.9999885651105407e-04  3.9999888642075574e-04  3.9999891595371282e-04  3.9999893977761406e-04  3.9999896038101282e-04  3.9999897794132247e-04  3.9999899307027129e-04  3.9999900613104674e-04  3.9999901745145624e-04  3.9999902729041527e-04  3.9999903586391639e-04  3.9999904335087807e-04  3.9999904990127290e-04  3.9999905564140522e-04  3.9999906067828694e-04  3.9999906510301939e-04  3.9999906899349592e-04  3.9999907241656976e-04  3.9999907542980742e-04  3.9999907808291779e-04  3.9999908041892602e-04  3.9999908247514065e-04  3.9999908428396094e-04  3.9999908587354645e-04  3.9999908726838301e-04  3.9999908848975361e-04  3.9999908955614289e-04  3.9999909048356921e-04  3.9999909128587844e-04  3.9999909197498004e-04  3.9999909256105431e-04  3.9999909305272428e-04  3.9999909345719815e-04  3.9999909378038917e-04  3.9999909402701041e-04  3.9999909420065227e-04  3.9999909430383867e-04  3.9999909433806856e-04  3.9999909430383867e-04  3.9999909420065222e-04  3.9999909402701041e-04  3.9999909378038922e-04  3.9999909345719842e-04  3.9999909305272422e-04  3.9999909256105442e-04  3.9999909197498004e-04  3.9999909128587854e-04  3.9999909048356910e-04  3.9999908955614256e-04  3.9999908848975394e-04  3.9999908726838274e-04  3.9999908587354661e-04  3.9999908428396094e-04  3.9999908247514087e-04  3.9999908041892608e-04  3.9999907808291801e-04  3.9999907542980737e-04  3.9999907241656971e-04  3.9999906899349576e-04  3.9999906510301928e-04  3.9999906067828700e-04  3.9999905564140517e-04  3.9999904990127306e-04  3.9999904335087769e-04  3.9999903586391628e-04  3.9999902729041537e-04  3.9999901745145614e-04  3.9999900613104668e-04  3.9999899307027135e-04  3.9999897794132242e-04  3.9999896038101304e-04  3.9999893977761395e-04  3.9999891595371288e-04  3.9999888642075563e-04  3.9999885651105429e-04  3.9999880065505478e-04  3.9999880880885197e-04  3.9999852827325819e-04  3.9999929428084302e-04  3.9999595482790451e-04  4.0000839747615088e-04  3.9995908492925777e-04  4.0015322020181229e-04  3.9937104753764172e-04  4.0259691572560170e-04  3.8867408725277476e-04  4.5479302876583270e-04  0.0000000000000000e+00  </DataArray> 
</PointData> 
</Piece>
</UnstructuredGrid>
</VTKFile>