<?xml version="1.0"?>
<VTKFile type="UnstructuredGrid"  version="0.1"  >
<UnstructuredGrid>
<Piece  NumberOfPoints="101" NumberOfCells="100">
<Points>
<DataArray  type="Float64"  NumberOfComponents="3"  format="ascii">0 0 0  1e-07 0 0  2e-07 0 0  3e-07 0 0  4e-07 0 0  5e-07 0 0  6.000000000000001e-07 0 0  7.000000000000001e-07 0 0  8.000000000000001e-07 0 0  9.000000000000001e-07 0 0  1e-06 0 0  1.1e-06 0 0  1.2e-06 0 0  1.3e-06 0 0  1.4e-06 0 0  1.5e-06 0 0  1.6e-06 0 0  1.7e-06 0 0  1.8e-06 0 0  1.9e-06 0 0  2e-06 0 0  2.1e-06 0 0  2.2e-06 0 0  2.3e-06 0 0  2.4e-06 0 0  2.5e-06 0 0  2.600000000000001e-06 0 0  2.7e-06 0 0  2.8e-06 0 0  2.9e-06 0 0  3e-06 0 0  3.1e-06 0 0  3.2e-06 0 0  3.300000000000001e-06 0 0  3.4e-06 0 0  3.5e-06 0 0  3.6e-06 0 0  3.700000000000001e-06 0 0  3.8e-06 0 0  3.900000000000001e-06 0 0  4e-06 0 0  4.100000000000001e-06 0 0  4.2e-06 0 0  4.3e-06 0 0  4.4e-06 0 0  4.5e-06 0 0  4.6e-06 0 0  4.700000000000001e-06 0 0  4.800000000000001e-06 0 0  4.900000000000001e-06 0 0  5e-06 0 0  5.1e-06 0 0  5.200000000000001e-06 0 0  5.300000000000001e-06 0 0  5.4e-06 0 0  5.500000000000001e-06 0 0  5.600000000000001e-06 0 0  5.7e-06 0 0  5.8e-06 0 0  5.9e-06 0 0  6e-06 0 0  6.100000000000001e-06 0 0  6.2e-06 0 0  6.300000000000001e-06 0 0  6.400000000000001e-06 0 0  6.5e-06 0 0  6.600000000000001e-06 0 0  6.7e-06 0 0  6.8e-06 0 0  6.900000000000001e-06 0 0  7.000000000000001e-06 0 0  7.1e-06 0 0  7.200000000000001e-06 0 0  7.3e-06 0 0  7.400000000000001e-06 0 0  7.5e-06 0 0  7.6e-06 0 0  7.700000000000001e-06 0 0  7.800000000000002e-06 0 0  7.900000000000001e-06 0 0  8e-06 0 0  8.1e-06 0 0  8.200000000000001e-06 0 0  8.300000000000002e-06 0 0  8.400000000000001e-06 0 0  8.5e-06 0 0  8.600000000000001e-06 0 0  8.700000000000001e-06 0 0  8.8e-06 0 0  8.900000000000001e-06 0 0  9e-06 0 0  9.100000000000001e-06 0 0  9.2e-06 0 0  9.300000000000001e-06 0 0  9.400000000000001e-06 0 0  9.500000000000001e-06 0 0  9.600000000000001e-06 0 0  9.7e-06 0 0  9.800000000000001e-06 0 0  9.9e-06 0 0  1e-05 0 0  </DataArray>
</Points>
<Cells>
<DataArray  type="UInt32"  Name="connectivity"  format="ascii">0 1  1 2  2 3  3 4  4 5  5 6  6 7  7 8  8 9  9 10  10 11  11 12  12 13  13 14  14 15  15 16  16 17  17 18  18 19  19 20  20 21  21 22  22 23  23 24  24 25  25 26  26 27  27 28  28 29  29 30  30 31  31 32  32 33  33 34  34 35  35 36  36 37  37 38  38 39  39 40  40 41  41 42  42 43  43 44  44 45  45 46  46 47  47 48  48 49  49 50  50 51  51 52  52 53  53 54  54 55  55 56  56 57  57 58  58 59  59 60  60 61  61 62  62 63  63 64  64 65  65 66  66 67  67 68  68 69  69 70  70 71  71 72  72 73  73 74  74 75  75 76  76 77  77 78  78 79  79 80  80 81  81 82  82 83  83 84  84 85  85 86  86 87  87 88  88 89  89 90  90 91  91 92  92 93  93 94  94 95  95 96  96 97  97 98  98 99  99 100  </DataArray>
<DataArray  type="UInt32"  Name="offsets"  format="ascii">2 4 6 8 10 12 14 16 18 20 22 24 26 28 30 32 34 36 38 40 42 44 46 48 50 52 54 56 58 60 62 64 66 68 70 72 74 76 78 80 82 84 86 88 90 92 94 96 98 100 102 104 106 108 110 112 114 116 118 120 122 124 126 128 130 132 134 136 138 140 142 144 146 148 150 152 154 156 158 160 162 164 166 168 170 172 174 176 178 180 182 184 186 188 190 192 194 196 198 200 </DataArray>
<DataArray  type="UInt8"  Name="types"  format="ascii">3 3 3 3 3 3 3 3 3 3 3 3 3 3 3 3 3 3 3 3 3 3 3 3 3 3 3 3 3 3 3 3 3 3 3 3 3 3 3 3 3 3 3 3 3 3 3 3 3 3 3 3 3 3 3 3 3 3 3 3 3 3 3 3 3 3 3 3 3 3 3 3 3 3 3 3 3 3 3 3 3 3 3 3 3 3 3 3 3 3 3 3 3 3 3 3 3 3 3 3 </DataArray>
</Cells>
<PointData  Scalars="f_37"> 
<DataArray  type="Float64"  Name="f_37"  format="ascii">0.0000000000000000e+00  1.6896619626022070e+06  9.5083979594685789e+06  1.6835049778908327e+07  1.1512807173532456e+07  1.3915550659286307e+07  -4.2688806342753068e+07  1.0873839810687467e+07  4.0752056652556233e+07  9.3542235511567874e+05  6.8728155688680531e+06  4.1913133420604073e+07  -2.8137536743249493e+06  8.6547689349438921e+06  7.9541496107507944e+06  2.4114768832775224e+07  -9.4943296672274601e+06  5.8112934723796062e+06  5.6574467965443088e+06  1.0102697068837335e+07  1.4336179352514273e+06  5.8312796314647086e+07  -2.9792188830457687e+08  3.8217538697314449e+07  -4.7874394696373492e+06  6.7277615721622352e+06  5.6697520215566829e+06  7.1700446496344162e+06  7.9765420042868461e+06  9.1948979323100634e+06  1.0315327243558267e+07  1.4296966434867548e+07  1.2071358381771270e+07  7.5023933590803161e+07  -3.7157347324291818e+07  -2.4346003918286701e+05  -1.2186832858244602e+06  1.7877261544123255e+06  2.6953932890080195e+06  3.5525993157800417e+06  4.1207405520438696e+06  4.5751726368503524e+06  4.9328210623097699e+06  5.2237788488551890e+06  5.4607444509287402e+06  5.6528971737116138e+06  5.8055243828842752e+06  5.9219346540733557e+06  6.0040572910511931e+06  6.0529772860997887e+06  6.0692304199462878e+06  6.0529772860934446e+06  6.0040572910631914e+06  5.9219346540701315e+06  5.8055243828822430e+06  5.6528971737189246e+06  5.4607444509317419e+06  5.2237788488623230e+06  4.9328210622949935e+06  4.5751726368501754e+06  4.1207405520362644e+06  3.5525993157886160e+06  2.6953932889780360e+06  1.7877261544064162e+06  -1.2186832858529415e+06  -2.4346003921926828e+05  -3.7157347324281923e+07  7.5023933590452999e+07  1.2071358381754896e+07  1.4296966434888320e+07  1.0315327243540812e+07  9.1948979323255382e+06  7.9765420042801667e+06  7.1700446496358961e+06  5.6697520215487592e+06  6.7277615721945455e+06  -4.7874394698499246e+06  3.8217538698449850e+07  -2.9792188831285596e+08  5.8312796315730609e+07  1.4336179350356841e+06  1.0102697068865314e+07  5.6574467965231976e+06  5.8112934723943714e+06  -9.4943296672525536e+06  2.4114768832752287e+07  7.9541496107705506e+06  8.6547689349339940e+06  -2.8137536743211956e+06  4.1913133420439310e+07  6.8728155688679432e+06  9.3542235513350612e+05  4.0752056652447037e+07  1.0873839810737103e+07  -4.2688806342951134e+07  1.3915550659304596e+07  1.1512807173539666e+07  1.6835049778916605e+07  9.5083979594946224e+06  1.6896619625496217e+06  0.0000000000000000e+00  </DataArray> 
</PointData> 
</Piece>
</UnstructuredGrid>
</VTKFile>