<?xml version="1.0"?>
<VTKFile type="UnstructuredGrid"  version="0.1"  >
<UnstructuredGrid>
<Piece  NumberOfPoints="101" NumberOfCells="100">
<Points>
<DataArray  type="Float64"  NumberOfComponents="3"  format="ascii">0 0 0  1e-07 0 0  2e-07 0 0  3e-07 0 0  4e-07 0 0  5e-07 0 0  6.000000000000001e-07 0 0  7.000000000000001e-07 0 0  8.000000000000001e-07 0 0  9.000000000000001e-07 0 0  1e-06 0 0  1.1e-06 0 0  1.2e-06 0 0  1.3e-06 0 0  1.4e-06 0 0  1.5e-06 0 0  1.6e-06 0 0  1.7e-06 0 0  1.8e-06 0 0  1.9e-06 0 0  2e-06 0 0  2.1e-06 0 0  2.2e-06 0 0  2.3e-06 0 0  2.4e-06 0 0  2.5e-06 0 0  2.600000000000001e-06 0 0  2.7e-06 0 0  2.8e-06 0 0  2.9e-06 0 0  3e-06 0 0  3.1e-06 0 0  3.2e-06 0 0  3.300000000000001e-06 0 0  3.4e-06 0 0  3.5e-06 0 0  3.6e-06 0 0  3.700000000000001e-06 0 0  3.8e-06 0 0  3.900000000000001e-06 0 0  4e-06 0 0  4.100000000000001e-06 0 0  4.2e-06 0 0  4.3e-06 0 0  4.4e-06 0 0  4.5e-06 0 0  4.6e-06 0 0  4.700000000000001e-06 0 0  4.800000000000001e-06 0 0  4.900000000000001e-06 0 0  5e-06 0 0  5.1e-06 0 0  5.200000000000001e-06 0 0  5.300000000000001e-06 0 0  5.4e-06 0 0  5.500000000000001e-06 0 0  5.600000000000001e-06 0 0  5.7e-06 0 0  5.8e-06 0 0  5.9e-06 0 0  6e-06 0 0  6.100000000000001e-06 0 0  6.2e-06 0 0  6.300000000000001e-06 0 0  6.400000000000001e-06 0 0  6.5e-06 0 0  6.600000000000001e-06 0 0  6.7e-06 0 0  6.8e-06 0 0  6.900000000000001e-06 0 0  7.000000000000001e-06 0 0  7.1e-06 0 0  7.200000000000001e-06 0 0  7.3e-06 0 0  7.400000000000001e-06 0 0  7.5e-06 0 0  7.6e-06 0 0  7.700000000000001e-06 0 0  7.800000000000002e-06 0 0  7.900000000000001e-06 0 0  8e-06 0 0  8.1e-06 0 0  8.200000000000001e-06 0 0  8.300000000000002e-06 0 0  8.400000000000001e-06 0 0  8.5e-06 0 0  8.600000000000001e-06 0 0  8.700000000000001e-06 0 0  8.8e-06 0 0  8.900000000000001e-06 0 0  9e-06 0 0  9.100000000000001e-06 0 0  9.2e-06 0 0  9.300000000000001e-06 0 0  9.400000000000001e-06 0 0  9.500000000000001e-06 0 0  9.600000000000001e-06 0 0  9.7e-06 0 0  9.800000000000001e-06 0 0  9.9e-06 0 0  1e-05 0 0  </DataArray>
</Points>
<Cells>
<DataArray  type="UInt32"  Name="connectivity"  format="ascii">0 1  1 2  2 3  3 4  4 5  5 6  6 7  7 8  8 9  9 10  10 11  11 12  12 13  13 14  14 15  15 16  16 17  17 18  18 19  19 20  20 21  21 22  22 23  23 24  24 25  25 26  26 27  27 28  28 29  29 30  30 31  31 32  32 33  33 34  34 35  35 36  36 37  37 38  38 39  39 40  40 41  41 42  42 43  43 44  44 45  45 46  46 47  47 48  48 49  49 50  50 51  51 52  52 53  53 54  54 55  55 56  56 57  57 58  58 59  59 60  60 61  61 62  62 63  63 64  64 65  65 66  66 67  67 68  68 69  69 70  70 71  71 72  72 73  73 74  74 75  75 76  76 77  77 78  78 79  79 80  80 81  81 82  82 83  83 84  84 85  85 86  86 87  87 88  88 89  89 90  90 91  91 92  92 93  93 94  94 95  95 96  96 97  97 98  98 99  99 100  </DataArray>
<DataArray  type="UInt32"  Name="offsets"  format="ascii">2 4 6 8 10 12 14 16 18 20 22 24 26 28 30 32 34 36 38 40 42 44 46 48 50 52 54 56 58 60 62 64 66 68 70 72 74 76 78 80 82 84 86 88 90 92 94 96 98 100 102 104 106 108 110 112 114 116 118 120 122 124 126 128 130 132 134 136 138 140 142 144 146 148 150 152 154 156 158 160 162 164 166 168 170 172 174 176 178 180 182 184 186 188 190 192 194 196 198 200 </DataArray>
<DataArray  type="UInt8"  Name="types"  format="ascii">3 3 3 3 3 3 3 3 3 3 3 3 3 3 3 3 3 3 3 3 3 3 3 3 3 3 3 3 3 3 3 3 3 3 3 3 3 3 3 3 3 3 3 3 3 3 3 3 3 3 3 3 3 3 3 3 3 3 3 3 3 3 3 3 3 3 3 3 3 3 3 3 3 3 3 3 3 3 3 3 3 3 3 3 3 3 3 3 3 3 3 3 3 3 3 3 3 3 3 3 </DataArray>
</Cells>
<PointData  Scalars="f_37"> 
<DataArray  type="Float64"  Name="f_37"  format="ascii">0.0000000000000000e+00  9.8416819808759075e+06  5.5383047577505641e+07  9.8058197274597704e+07  6.7058020726556882e+07  8.1053149806690603e+07  -2.4864716462075227e+08  6.3336262339102060e+07  2.3736628421428242e+08  5.4485036300826352e+06  4.0031714413362145e+07  2.4412914480972984e+08  -1.6389117733690728e+07  5.0410961104019448e+07  4.6330101896096356e+07  1.4045998024895105e+08  -5.5301104762127429e+07  3.3848724489612274e+07  3.2952622138433125e+07  5.8844629222462654e+07  8.3503162840298386e+06  3.3965136781591177e+08  -1.7352893920391786e+09  2.2260361556079137e+08  -2.7885137859352022e+07  3.9186826301284038e+07  3.3024295712174926e+07  4.1762968447077088e+07  4.6460529650789082e+07  5.3557021048780143e+07  6.0083124617078424e+07  8.3274761495208517e+07  7.0311383519346222e+07  4.3698781868646973e+08  -2.1642837662951192e+08  -1.4180684265387112e+06  -7.0983981411416186e+06  1.0412871136380326e+07  1.5699710445603251e+07  2.0692631689203721e+07  2.4001852995765559e+07  2.6648758802702427e+07  2.8731934101808723e+07  3.0426660069735236e+07  3.1806900702259824e+07  3.2926122198183052e+07  3.3815121588329077e+07  3.4493170152898766e+07  3.4971505402466618e+07  3.5256447032467440e+07  3.5351115775713228e+07  3.5256447032430604e+07  3.4971505402536586e+07  3.4493170152879819e+07  3.3815121588316880e+07  3.2926122198225878e+07  3.1806900702277191e+07  3.0426660069776725e+07  2.8731934101722714e+07  2.6648758802701235e+07  2.4001852995721363e+07  2.0692631689253725e+07  1.5699710445428452e+07  1.0412871136346046e+07  -7.0983981413075542e+06  -1.4180684267507119e+06  -2.1642837662945434e+08  4.3698781868443120e+08  7.0311383519250393e+07  8.3274761495329589e+07  6.0083124616976865e+07  5.3557021048869908e+07  4.6460529650750190e+07  4.1762968447085962e+07  3.3024295712128874e+07  3.9186826301471762e+07  -2.7885137860588595e+07  2.2260361556740031e+08  -1.7352893920873840e+09  3.3965136782221520e+08  8.3503162827749941e+06  5.8844629222625509e+07  3.2952622138310906e+07  3.3848724489698425e+07  -5.5301104762274086e+07  1.4045998024881846e+08  4.6330101896211870e+07  5.0410961103962071e+07  -1.6389117733669136e+07  2.4412914480877072e+08  4.0031714413361430e+07  5.4485036301868930e+06  2.3736628421364596e+08  6.3336262339391217e+07  -2.4864716462190524e+08  8.1053149806796804e+07  6.7058020726599336e+07  9.8058197274645925e+07  5.5383047577657513e+07  9.8416819805696681e+06  0.0000000000000000e+00  </DataArray> 
</PointData> 
</Piece>
</UnstructuredGrid>
</VTKFile>