<?xml version="1.0"?>
<VTKFile type="UnstructuredGrid"  version="0.1"  >
<UnstructuredGrid>
<Piece  NumberOfPoints="101" NumberOfCells="100">
<Points>
<DataArray  type="Float64"  NumberOfComponents="3"  format="ascii">0 0 0  1e-07 0 0  2e-07 0 0  3e-07 0 0  4e-07 0 0  5e-07 0 0  6.000000000000001e-07 0 0  7.000000000000001e-07 0 0  8.000000000000001e-07 0 0  9.000000000000001e-07 0 0  1e-06 0 0  1.1e-06 0 0  1.2e-06 0 0  1.3e-06 0 0  1.4e-06 0 0  1.5e-06 0 0  1.6e-06 0 0  1.7e-06 0 0  1.8e-06 0 0  1.9e-06 0 0  2e-06 0 0  2.1e-06 0 0  2.2e-06 0 0  2.3e-06 0 0  2.4e-06 0 0  2.5e-06 0 0  2.600000000000001e-06 0 0  2.7e-06 0 0  2.8e-06 0 0  2.9e-06 0 0  3e-06 0 0  3.1e-06 0 0  3.2e-06 0 0  3.300000000000001e-06 0 0  3.4e-06 0 0  3.5e-06 0 0  3.6e-06 0 0  3.700000000000001e-06 0 0  3.8e-06 0 0  3.900000000000001e-06 0 0  4e-06 0 0  4.100000000000001e-06 0 0  4.2e-06 0 0  4.3e-06 0 0  4.4e-06 0 0  4.5e-06 0 0  4.6e-06 0 0  4.700000000000001e-06 0 0  4.800000000000001e-06 0 0  4.900000000000001e-06 0 0  5e-06 0 0  5.1e-06 0 0  5.200000000000001e-06 0 0  5.300000000000001e-06 0 0  5.4e-06 0 0  5.500000000000001e-06 0 0  5.600000000000001e-06 0 0  5.7e-06 0 0  5.8e-06 0 0  5.9e-06 0 0  6e-06 0 0  6.100000000000001e-06 0 0  6.2e-06 0 0  6.300000000000001e-06 0 0  6.400000000000001e-06 0 0  6.5e-06 0 0  6.600000000000001e-06 0 0  6.7e-06 0 0  6.8e-06 0 0  6.900000000000001e-06 0 0  7.000000000000001e-06 0 0  7.1e-06 0 0  7.200000000000001e-06 0 0  7.3e-06 0 0  7.400000000000001e-06 0 0  7.5e-06 0 0  7.6e-06 0 0  7.700000000000001e-06 0 0  7.800000000000002e-06 0 0  7.900000000000001e-06 0 0  8e-06 0 0  8.1e-06 0 0  8.200000000000001e-06 0 0  8.300000000000002e-06 0 0  8.400000000000001e-06 0 0  8.5e-06 0 0  8.600000000000001e-06 0 0  8.700000000000001e-06 0 0  8.8e-06 0 0  8.900000000000001e-06 0 0  9e-06 0 0  9.100000000000001e-06 0 0  9.2e-06 0 0  9.300000000000001e-06 0 0  9.400000000000001e-06 0 0  9.500000000000001e-06 0 0  9.600000000000001e-06 0 0  9.7e-06 0 0  9.800000000000001e-06 0 0  9.9e-06 0 0  1e-05 0 0  </DataArray>
</Points>
<Cells>
<DataArray  type="UInt32"  Name="connectivity"  format="ascii">0 1  1 2  2 3  3 4  4 5  5 6  6 7  7 8  8 9  9 10  10 11  11 12  12 13  13 14  14 15  15 16  16 17  17 18  18 19  19 20  20 21  21 22  22 23  23 24  24 25  25 26  26 27  27 28  28 29  29 30  30 31  31 32  32 33  33 34  34 35  35 36  36 37  37 38  38 39  39 40  40 41  41 42  42 43  43 44  44 45  45 46  46 47  47 48  48 49  49 50  50 51  51 52  52 53  53 54  54 55  55 56  56 57  57 58  58 59  59 60  60 61  61 62  62 63  63 64  64 65  65 66  66 67  67 68  68 69  69 70  70 71  71 72  72 73  73 74  74 75  75 76  76 77  77 78  78 79  79 80  80 81  81 82  82 83  83 84  84 85  85 86  86 87  87 88  88 89  89 90  90 91  91 92  92 93  93 94  94 95  95 96  96 97  97 98  98 99  99 100  </DataArray>
<DataArray  type="UInt32"  Name="offsets"  format="ascii">2 4 6 8 10 12 14 16 18 20 22 24 26 28 30 32 34 36 38 40 42 44 46 48 50 52 54 56 58 60 62 64 66 68 70 72 74 76 78 80 82 84 86 88 90 92 94 96 98 100 102 104 106 108 110 112 114 116 118 120 122 124 126 128 130 132 134 136 138 140 142 144 146 148 150 152 154 156 158 160 162 164 166 168 170 172 174 176 178 180 182 184 186 188 190 192 194 196 198 200 </DataArray>
<DataArray  type="UInt8"  Name="types"  format="ascii">3 3 3 3 3 3 3 3 3 3 3 3 3 3 3 3 3 3 3 3 3 3 3 3 3 3 3 3 3 3 3 3 3 3 3 3 3 3 3 3 3 3 3 3 3 3 3 3 3 3 3 3 3 3 3 3 3 3 3 3 3 3 3 3 3 3 3 3 3 3 3 3 3 3 3 3 3 3 3 3 3 3 3 3 3 3 3 3 3 3 3 3 3 3 3 3 3 3 3 3 </DataArray>
</Cells>
<PointData  Scalars="f_34"> 
<DataArray  type="Float64"  Name="f_34"  format="ascii">0.0000000000000000e+00  1.0343282647962754e-80  2.0676357724711615e-80  3.0989027732673111e-80  4.1271115311613118e-80  5.1512473282462700e-80  6.1702994661358777e-80  7.1832622634016932e-80  8.1891360480592945e-80  9.1869281441238417e-80  1.0175653851261416e-79  1.1154337416569375e-79  1.2122012997526656e-79  1.3077725615163740e-79  1.4020532096511607e-79  1.4949502005399573e-79  1.5863718560683461e-79  1.6762279540997912e-79  1.7644298175139933e-79  1.8508904017205031e-79  1.9355243805612207e-79  2.0182482305170147e-79  2.0989803131353491e-79  2.1776409555975836e-79  2.2541525293464219e-79  2.3284395266959273e-79  2.4004286353484938e-79  2.4700488107452322e-79  2.5372313461783715e-79  2.6019099405964842e-79  2.6640207640356230e-79  2.7235025206117837e-79  2.7802965090125436e-79  2.8343466804281745e-79  2.8855996938650437e-79  2.9340049687867402e-79  2.9795147350309555e-79  3.0220840799528682e-79  3.0616709927484998e-79  3.0982364059143063e-79  3.1317442338020892e-79  3.1621614082311733e-79  3.1894579111227059e-79  3.2136068041238817e-79  3.2345842551928386e-79  3.2523695621180105e-79  3.2669451729487083e-79  3.2782967033167772e-79  3.2864129506322294e-79  3.2912859051388520e-79  3.2929107578188642e-79  3.2912859051388442e-79  3.2864129506322156e-79  3.2782967033167562e-79  3.2669451729486820e-79  3.2523695621179781e-79  3.2345842551928002e-79  3.2136068041238367e-79  3.1894579111226544e-79  3.1621614082311134e-79  3.1317442338020221e-79  3.0982364059142314e-79  3.0616709927484189e-79  3.0220840799527819e-79  2.9795147350308638e-79  2.9340049687866449e-79  2.8855996938649449e-79  2.8343466804280744e-79  2.7802965090124429e-79  2.7235025206116824e-79  2.6640207640355226e-79  2.6019099405963844e-79  2.5372313461782712e-79  2.4700488107451333e-79  2.4004286353483961e-79  2.3284395266958330e-79  2.2541525293463312e-79  2.1776409555974967e-79  2.0989803131352661e-79  2.0182482305169359e-79  1.9355243805611482e-79  1.8508904017204354e-79  1.7644298175139304e-79  1.6762279540997319e-79  1.5863718560682919e-79  1.4949502005399082e-79  1.4020532096511152e-79  1.3077725615163313e-79  1.2122012997526274e-79  1.1154337416569025e-79  1.0175653851261115e-79  9.1869281441235720e-80  8.1891360480590728e-80  7.1832622634014985e-80  6.1702994661357061e-80  5.1512473282461374e-80  4.1271115311611995e-80  3.0989027732672359e-80  2.0676357724711065e-80  1.0343282647962564e-80  0.0000000000000000e+00  </DataArray> 
</PointData> 
</Piece>
</UnstructuredGrid>
</VTKFile>