<?xml version="1.0"?>
<VTKFile type="UnstructuredGrid"  version="0.1"  >
<UnstructuredGrid>
<Piece  NumberOfPoints="101" NumberOfCells="100">
<Points>
<DataArray  type="Float64"  NumberOfComponents="3"  format="ascii">0 0 0  1e-07 0 0  2e-07 0 0  3e-07 0 0  4e-07 0 0  5e-07 0 0  6.000000000000001e-07 0 0  7.000000000000001e-07 0 0  8.000000000000001e-07 0 0  9.000000000000001e-07 0 0  1e-06 0 0  1.1e-06 0 0  1.2e-06 0 0  1.3e-06 0 0  1.4e-06 0 0  1.5e-06 0 0  1.6e-06 0 0  1.7e-06 0 0  1.8e-06 0 0  1.9e-06 0 0  2e-06 0 0  2.1e-06 0 0  2.2e-06 0 0  2.3e-06 0 0  2.4e-06 0 0  2.5e-06 0 0  2.600000000000001e-06 0 0  2.7e-06 0 0  2.8e-06 0 0  2.9e-06 0 0  3e-06 0 0  3.1e-06 0 0  3.2e-06 0 0  3.300000000000001e-06 0 0  3.4e-06 0 0  3.5e-06 0 0  3.6e-06 0 0  3.700000000000001e-06 0 0  3.8e-06 0 0  3.900000000000001e-06 0 0  4e-06 0 0  4.100000000000001e-06 0 0  4.2e-06 0 0  4.3e-06 0 0  4.4e-06 0 0  4.5e-06 0 0  4.6e-06 0 0  4.700000000000001e-06 0 0  4.800000000000001e-06 0 0  4.900000000000001e-06 0 0  5e-06 0 0  5.1e-06 0 0  5.200000000000001e-06 0 0  5.300000000000001e-06 0 0  5.4e-06 0 0  5.500000000000001e-06 0 0  5.600000000000001e-06 0 0  5.7e-06 0 0  5.8e-06 0 0  5.9e-06 0 0  6e-06 0 0  6.100000000000001e-06 0 0  6.2e-06 0 0  6.300000000000001e-06 0 0  6.400000000000001e-06 0 0  6.5e-06 0 0  6.600000000000001e-06 0 0  6.7e-06 0 0  6.8e-06 0 0  6.900000000000001e-06 0 0  7.000000000000001e-06 0 0  7.1e-06 0 0  7.200000000000001e-06 0 0  7.3e-06 0 0  7.400000000000001e-06 0 0  7.5e-06 0 0  7.6e-06 0 0  7.700000000000001e-06 0 0  7.800000000000002e-06 0 0  7.900000000000001e-06 0 0  8e-06 0 0  8.1e-06 0 0  8.200000000000001e-06 0 0  8.300000000000002e-06 0 0  8.400000000000001e-06 0 0  8.5e-06 0 0  8.600000000000001e-06 0 0  8.700000000000001e-06 0 0  8.8e-06 0 0  8.900000000000001e-06 0 0  9e-06 0 0  9.100000000000001e-06 0 0  9.2e-06 0 0  9.300000000000001e-06 0 0  9.400000000000001e-06 0 0  9.500000000000001e-06 0 0  9.600000000000001e-06 0 0  9.7e-06 0 0  9.800000000000001e-06 0 0  9.9e-06 0 0  1e-05 0 0  </DataArray>
</Points>
<Cells>
<DataArray  type="UInt32"  Name="connectivity"  format="ascii">0 1  1 2  2 3  3 4  4 5  5 6  6 7  7 8  8 9  9 10  10 11  11 12  12 13  13 14  14 15  15 16  16 17  17 18  18 19  19 20  20 21  21 22  22 23  23 24  24 25  25 26  26 27  27 28  28 29  29 30  30 31  31 32  32 33  33 34  34 35  35 36  36 37  37 38  38 39  39 40  40 41  41 42  42 43  43 44  44 45  45 46  46 47  47 48  48 49  49 50  50 51  51 52  52 53  53 54  54 55  55 56  56 57  57 58  58 59  59 60  60 61  61 62  62 63  63 64  64 65  65 66  66 67  67 68  68 69  69 70  70 71  71 72  72 73  73 74  74 75  75 76  76 77  77 78  78 79  79 80  80 81  81 82  82 83  83 84  84 85  85 86  86 87  87 88  88 89  89 90  90 91  91 92  92 93  93 94  94 95  95 96  96 97  97 98  98 99  99 100  </DataArray>
<DataArray  type="UInt32"  Name="offsets"  format="ascii">2 4 6 8 10 12 14 16 18 20 22 24 26 28 30 32 34 36 38 40 42 44 46 48 50 52 54 56 58 60 62 64 66 68 70 72 74 76 78 80 82 84 86 88 90 92 94 96 98 100 102 104 106 108 110 112 114 116 118 120 122 124 126 128 130 132 134 136 138 140 142 144 146 148 150 152 154 156 158 160 162 164 166 168 170 172 174 176 178 180 182 184 186 188 190 192 194 196 198 200 </DataArray>
<DataArray  type="UInt8"  Name="types"  format="ascii">3 3 3 3 3 3 3 3 3 3 3 3 3 3 3 3 3 3 3 3 3 3 3 3 3 3 3 3 3 3 3 3 3 3 3 3 3 3 3 3 3 3 3 3 3 3 3 3 3 3 3 3 3 3 3 3 3 3 3 3 3 3 3 3 3 3 3 3 3 3 3 3 3 3 3 3 3 3 3 3 3 3 3 3 3 3 3 3 3 3 3 3 3 3 3 3 3 3 3 3 </DataArray>
</Cells>
<PointData  Scalars="f_38"> 
<DataArray  type="Float64"  Name="f_38"  format="ascii">0.0000000000000000e+00  9.5609008120311882e-04  1.9033019389806457e-03  2.8408429649682118e-03  3.7687234680037203e-03  4.6867919528288350e-03  5.5948247387139381e-03  6.4925254575905651e-03  7.3795366849526292e-03  8.2554482534273280e-03  9.1198051602915456e-03  9.9721146101092312e-03  1.0811852389565590e-02  1.1638468623034581e-02  1.2451392979223413e-02  1.3250039385168571e-02  1.4033810298824702e-02  1.4802100585331480e-02  1.5554301036976350e-02  1.6289801572289174e-02  1.7007994145667265e-02  1.7708275395348860e-02  1.8390049054384905e-02  1.9052728146455630e-02  1.9695736985899392e-02  2.0318512999129911e-02  2.0920508382682626e-02  2.1501191611421739e-02  2.2060048808932281e-02  2.2596584990791917e-02  2.3110325190246497e-02  2.3600815474782204e-02  2.4067623861180189e-02  2.4510341135842283e-02  2.4928581586475939e-02  2.5321983650611529e-02  2.5690210485885399e-02  2.6032950466548743e-02  2.6349917610246684e-02  2.6640851938747587e-02  2.6905519775982132e-02  2.7143713986470010e-02  2.7355254156963181e-02  2.7539986723914691e-02  2.7697785049186050e-02  2.7828549446230401e-02  2.7932207158830099e-02  2.8008712294322165e-02  2.8058045713110463e-02  2.8080214876137297e-02  2.8075253651865830e-02  2.8043222084206801e-02  2.7984206122705961e-02  2.7898317316190097e-02  2.7785692470947601e-02  2.7646493274392090e-02  2.7480905885022382e-02  2.7289140489347542e-02  2.7071430826289242e-02  2.6828033679402633e-02  2.6559228337070473e-02  2.6265316020618667e-02  2.5946619280074266e-02  2.5603481357034340e-02  2.5236265513834705e-02  2.4845354327895530e-02  2.4431148949775154e-02  2.3994068323076642e-02  2.3534548363921767e-02  2.3053041097226622e-02  2.2550013746476940e-02  2.2025947773102572e-02  2.1481337860881612e-02  2.0916690840056672e-02  2.0332524545009393e-02  1.9729366598403832e-02  1.9107753113661537e-02  1.8468227306458852e-02  1.7811338004622871e-02  1.7137638044330619e-02  1.6447682538865627e-02  1.5742027004335579e-02  1.5021225324678613e-02  1.4285827535956072e-02  1.3536377407314884e-02  1.2773409793066034e-02  1.1997447727028590e-02  1.1208999226582696e-02  1.0408553769716937e-02  9.5965784036579280e-03  8.7735134384933494e-03  7.9397676729371335e-03  7.0957130942617729e-03  6.2416789802402914e-03  5.3779453527412861e-03  4.5047355837442528e-03  3.6222086112718929e-03  2.7304478496115417e-03  1.8294622491827070e-03  9.1909722916283727e-04  0.0000000000000000e+00  </DataArray> 
</PointData> 
</Piece>
</UnstructuredGrid>
</VTKFile>