<?xml version="1.0"?>
<VTKFile type="UnstructuredGrid"  version="0.1"  >
<UnstructuredGrid>
<Piece  NumberOfPoints="101" NumberOfCells="100">
<Points>
<DataArray  type="Float64"  NumberOfComponents="3"  format="ascii">0 0 0  1e-07 0 0  2e-07 0 0  3e-07 0 0  4e-07 0 0  5e-07 0 0  6.000000000000001e-07 0 0  7.000000000000001e-07 0 0  8.000000000000001e-07 0 0  9.000000000000001e-07 0 0  1e-06 0 0  1.1e-06 0 0  1.2e-06 0 0  1.3e-06 0 0  1.4e-06 0 0  1.5e-06 0 0  1.6e-06 0 0  1.7e-06 0 0  1.8e-06 0 0  1.9e-06 0 0  2e-06 0 0  2.1e-06 0 0  2.2e-06 0 0  2.3e-06 0 0  2.4e-06 0 0  2.5e-06 0 0  2.600000000000001e-06 0 0  2.7e-06 0 0  2.8e-06 0 0  2.9e-06 0 0  3e-06 0 0  3.1e-06 0 0  3.2e-06 0 0  3.300000000000001e-06 0 0  3.4e-06 0 0  3.5e-06 0 0  3.6e-06 0 0  3.700000000000001e-06 0 0  3.8e-06 0 0  3.900000000000001e-06 0 0  4e-06 0 0  4.100000000000001e-06 0 0  4.2e-06 0 0  4.3e-06 0 0  4.4e-06 0 0  4.5e-06 0 0  4.6e-06 0 0  4.700000000000001e-06 0 0  4.800000000000001e-06 0 0  4.900000000000001e-06 0 0  5e-06 0 0  5.1e-06 0 0  5.200000000000001e-06 0 0  5.300000000000001e-06 0 0  5.4e-06 0 0  5.500000000000001e-06 0 0  5.600000000000001e-06 0 0  5.7e-06 0 0  5.8e-06 0 0  5.9e-06 0 0  6e-06 0 0  6.100000000000001e-06 0 0  6.2e-06 0 0  6.300000000000001e-06 0 0  6.400000000000001e-06 0 0  6.5e-06 0 0  6.600000000000001e-06 0 0  6.7e-06 0 0  6.8e-06 0 0  6.900000000000001e-06 0 0  7.000000000000001e-06 0 0  7.1e-06 0 0  7.200000000000001e-06 0 0  7.3e-06 0 0  7.400000000000001e-06 0 0  7.5e-06 0 0  7.6e-06 0 0  7.700000000000001e-06 0 0  7.800000000000002e-06 0 0  7.900000000000001e-06 0 0  8e-06 0 0  8.1e-06 0 0  8.200000000000001e-06 0 0  8.300000000000002e-06 0 0  8.400000000000001e-06 0 0  8.5e-06 0 0  8.600000000000001e-06 0 0  8.700000000000001e-06 0 0  8.8e-06 0 0  8.900000000000001e-06 0 0  9e-06 0 0  9.100000000000001e-06 0 0  9.2e-06 0 0  9.300000000000001e-06 0 0  9.400000000000001e-06 0 0  9.500000000000001e-06 0 0  9.600000000000001e-06 0 0  9.7e-06 0 0  9.800000000000001e-06 0 0  9.9e-06 0 0  1e-05 0 0  </DataArray>
</Points>
<Cells>
<DataArray  type="UInt32"  Name="connectivity"  format="ascii">0 1  1 2  2 3  3 4  4 5  5 6  6 7  7 8  8 9  9 10  10 11  11 12  12 13  13 14  14 15  15 16  16 17  17 18  18 19  19 20  20 21  21 22  22 23  23 24  24 25  25 26  26 27  27 28  28 29  29 30  30 31  31 32  32 33  33 34  34 35  35 36  36 37  37 38  38 39  39 40  40 41  41 42  42 43  43 44  44 45  45 46  46 47  47 48  48 49  49 50  50 51  51 52  52 53  53 54  54 55  55 56  56 57  57 58  58 59  59 60  60 61  61 62  62 63  63 64  64 65  65 66  66 67  67 68  68 69  69 70  70 71  71 72  72 73  73 74  74 75  75 76  76 77  77 78  78 79  79 80  80 81  81 82  82 83  83 84  84 85  85 86  86 87  87 88  88 89  89 90  90 91  91 92  92 93  93 94  94 95  95 96  96 97  97 98  98 99  99 100  </DataArray>
<DataArray  type="UInt32"  Name="offsets"  format="ascii">2 4 6 8 10 12 14 16 18 20 22 24 26 28 30 32 34 36 38 40 42 44 46 48 50 52 54 56 58 60 62 64 66 68 70 72 74 76 78 80 82 84 86 88 90 92 94 96 98 100 102 104 106 108 110 112 114 116 118 120 122 124 126 128 130 132 134 136 138 140 142 144 146 148 150 152 154 156 158 160 162 164 166 168 170 172 174 176 178 180 182 184 186 188 190 192 194 196 198 200 </DataArray>
<DataArray  type="UInt8"  Name="types"  format="ascii">3 3 3 3 3 3 3 3 3 3 3 3 3 3 3 3 3 3 3 3 3 3 3 3 3 3 3 3 3 3 3 3 3 3 3 3 3 3 3 3 3 3 3 3 3 3 3 3 3 3 3 3 3 3 3 3 3 3 3 3 3 3 3 3 3 3 3 3 3 3 3 3 3 3 3 3 3 3 3 3 3 3 3 3 3 3 3 3 3 3 3 3 3 3 3 3 3 3 3 3 </DataArray>
</Cells>
<PointData  Scalars="f_37"> 
<DataArray  type="Float64"  Name="f_37"  format="ascii">0.0000000000000000e+00  8.7013545848031551e+07  4.8965973082175410e+08  8.6696475875855398e+08  5.9288200658249712e+08  7.1661754368170452e+08  -2.1983713252219186e+09  5.5997671715012944e+08  2.0986333529564145e+09  4.8172011790323250e+07  3.5393354756342155e+08  2.1584260267726574e+09  -1.4490157780959919e+08  4.4569987973513675e+08  4.0961966189454490e+08  1.2418528616302409e+09  -4.8893524745226413e+08  2.9926770098825002e+08  2.9134496550763148e+08  5.2026471214054728e+08  7.3827891435407102e+07  3.0029694033221045e+09  -1.5342263991786345e+10  1.9681117461603818e+09  -2.4654167105972254e+08  3.4646361400738889e+08  2.9197865513578755e+08  3.6924013362563372e+08  4.1077281655193150e+08  4.7351522997467107e+08  5.3121465707997292e+08  7.3625954297522831e+08  6.2164605657728624e+08  3.8635529648482008e+09  -1.9135144286577446e+09  -1.2537609149337202e+07  -6.2759271565776698e+07  9.2063616950405180e+07  1.3880630133282834e+08  1.8295035947145128e+08  2.1220827294999406e+08  2.3561043735998923e+08  2.5402847502372262e+08  2.6901210444769382e+08  2.8121526563425505e+08  2.9111067082402277e+08  2.9897060669105029e+08  3.0496545695902622e+08  3.0919457615327179e+08  3.1171383877873212e+08  3.1255083626013702e+08  3.1171383877840817e+08  3.0919457615389127e+08  3.0496545695885593e+08  2.9897060669093889e+08  2.9111067082440406e+08  2.8121526563440788e+08  2.6901210444806153e+08  2.5402847502296215e+08  2.3561043735997692e+08  2.1220827294960505e+08  1.8295035947189420e+08  1.3880630133128160e+08  9.2063616950103730e+07  -6.2759271567244664e+07  -1.2537609151209773e+07  -1.9135144286572394e+09  3.8635529648301954e+09  6.2164605657643270e+08  7.3625954297629917e+08  5.3121465707907510e+08  4.7351522997545958e+08  4.1077281655158949e+08  3.6924013362571245e+08  2.9197865513538313e+08  3.4646361400904369e+08  -2.4654167107063770e+08  1.9681117462187614e+09  -1.5342263992212379e+10  3.0029694033777533e+09  7.3827891424329475e+07  5.2026471214198530e+08  2.9134496550656015e+08  2.9926770098901236e+08  -4.8893524745356601e+08  1.2418528616290793e+09  4.0961966189557093e+08  4.4569987973463267e+08  -1.4490157780941251e+08  2.1584260267641873e+09  3.5393354756341326e+08  4.8172011791250303e+07  2.0986333529507787e+09  5.5997671715268672e+08  -2.1983713252321024e+09  7.1661754368264186e+08  5.9288200658287501e+08  8.6696475875897861e+08  4.8965973082309854e+08  8.7013545845323816e+07  0.0000000000000000e+00  </DataArray> 
</PointData> 
</Piece>
</UnstructuredGrid>
</VTKFile>