<?xml version="1.0"?>
<VTKFile type="UnstructuredGrid"  version="0.1"  >
<UnstructuredGrid>
<Piece  NumberOfPoints="101" NumberOfCells="100">
<Points>
<DataArray  type="Float64"  NumberOfComponents="3"  format="ascii">0 0 0  1e-07 0 0  2e-07 0 0  3e-07 0 0  4e-07 0 0  5e-07 0 0  6.000000000000001e-07 0 0  7.000000000000001e-07 0 0  8.000000000000001e-07 0 0  9.000000000000001e-07 0 0  1e-06 0 0  1.1e-06 0 0  1.2e-06 0 0  1.3e-06 0 0  1.4e-06 0 0  1.5e-06 0 0  1.6e-06 0 0  1.7e-06 0 0  1.8e-06 0 0  1.9e-06 0 0  2e-06 0 0  2.1e-06 0 0  2.2e-06 0 0  2.3e-06 0 0  2.4e-06 0 0  2.5e-06 0 0  2.600000000000001e-06 0 0  2.7e-06 0 0  2.8e-06 0 0  2.9e-06 0 0  3e-06 0 0  3.1e-06 0 0  3.2e-06 0 0  3.300000000000001e-06 0 0  3.4e-06 0 0  3.5e-06 0 0  3.6e-06 0 0  3.700000000000001e-06 0 0  3.8e-06 0 0  3.900000000000001e-06 0 0  4e-06 0 0  4.100000000000001e-06 0 0  4.2e-06 0 0  4.3e-06 0 0  4.4e-06 0 0  4.5e-06 0 0  4.6e-06 0 0  4.700000000000001e-06 0 0  4.800000000000001e-06 0 0  4.900000000000001e-06 0 0  5e-06 0 0  5.1e-06 0 0  5.200000000000001e-06 0 0  5.300000000000001e-06 0 0  5.4e-06 0 0  5.500000000000001e-06 0 0  5.600000000000001e-06 0 0  5.7e-06 0 0  5.8e-06 0 0  5.9e-06 0 0  6e-06 0 0  6.100000000000001e-06 0 0  6.2e-06 0 0  6.300000000000001e-06 0 0  6.400000000000001e-06 0 0  6.5e-06 0 0  6.600000000000001e-06 0 0  6.7e-06 0 0  6.8e-06 0 0  6.900000000000001e-06 0 0  7.000000000000001e-06 0 0  7.1e-06 0 0  7.200000000000001e-06 0 0  7.3e-06 0 0  7.400000000000001e-06 0 0  7.5e-06 0 0  7.6e-06 0 0  7.700000000000001e-06 0 0  7.800000000000002e-06 0 0  7.900000000000001e-06 0 0  8e-06 0 0  8.1e-06 0 0  8.200000000000001e-06 0 0  8.300000000000002e-06 0 0  8.400000000000001e-06 0 0  8.5e-06 0 0  8.600000000000001e-06 0 0  8.700000000000001e-06 0 0  8.8e-06 0 0  8.900000000000001e-06 0 0  9e-06 0 0  9.100000000000001e-06 0 0  9.2e-06 0 0  9.300000000000001e-06 0 0  9.400000000000001e-06 0 0  9.500000000000001e-06 0 0  9.600000000000001e-06 0 0  9.7e-06 0 0  9.800000000000001e-06 0 0  9.9e-06 0 0  1e-05 0 0  </DataArray>
</Points>
<Cells>
<DataArray  type="UInt32"  Name="connectivity"  format="ascii">0 1  1 2  2 3  3 4  4 5  5 6  6 7  7 8  8 9  9 10  10 11  11 12  12 13  13 14  14 15  15 16  16 17  17 18  18 19  19 20  20 21  21 22  22 23  23 24  24 25  25 26  26 27  27 28  28 29  29 30  30 31  31 32  32 33  33 34  34 35  35 36  36 37  37 38  38 39  39 40  40 41  41 42  42 43  43 44  44 45  45 46  46 47  47 48  48 49  49 50  50 51  51 52  52 53  53 54  54 55  55 56  56 57  57 58  58 59  59 60  60 61  61 62  62 63  63 64  64 65  65 66  66 67  67 68  68 69  69 70  70 71  71 72  72 73  73 74  74 75  75 76  76 77  77 78  78 79  79 80  80 81  81 82  82 83  83 84  84 85  85 86  86 87  87 88  88 89  89 90  90 91  91 92  92 93  93 94  94 95  95 96  96 97  97 98  98 99  99 100  </DataArray>
<DataArray  type="UInt32"  Name="offsets"  format="ascii">2 4 6 8 10 12 14 16 18 20 22 24 26 28 30 32 34 36 38 40 42 44 46 48 50 52 54 56 58 60 62 64 66 68 70 72 74 76 78 80 82 84 86 88 90 92 94 96 98 100 102 104 106 108 110 112 114 116 118 120 122 124 126 128 130 132 134 136 138 140 142 144 146 148 150 152 154 156 158 160 162 164 166 168 170 172 174 176 178 180 182 184 186 188 190 192 194 196 198 200 </DataArray>
<DataArray  type="UInt8"  Name="types"  format="ascii">3 3 3 3 3 3 3 3 3 3 3 3 3 3 3 3 3 3 3 3 3 3 3 3 3 3 3 3 3 3 3 3 3 3 3 3 3 3 3 3 3 3 3 3 3 3 3 3 3 3 3 3 3 3 3 3 3 3 3 3 3 3 3 3 3 3 3 3 3 3 3 3 3 3 3 3 3 3 3 3 3 3 3 3 3 3 3 3 3 3 3 3 3 3 3 3 3 3 3 3 </DataArray>
</Cells>
<PointData  Scalars="f_44"> 
<DataArray  type="Float64"  Name="f_44"  format="ascii">0.0000000000000000e+00  4.5636493395676263e-04  3.8769985623465667e-04  4.0298147181766736e-04  3.9924311934851097e-04  4.0019483517067219e-04  3.9994761601483815e-04  4.0001264648008094e-04  3.9999545531391352e-04  4.0000004194186829e-04  3.9999882906629672e-04  3.9999915945917937e-04  3.9999907528755403e-04  3.9999910051859443e-04  3.9999909552513170e-04  3.9999909800929632e-04  3.9999909809147651e-04  3.9999909855697834e-04  3.9999909875031040e-04  3.9999909890604194e-04  3.9999909899975246e-04  3.9999909906303810e-04  3.9999909910377516e-04  3.9999909913051668e-04  3.9999909914793043e-04  3.9999909915930615e-04  3.9999909916672838e-04  3.9999909917157281e-04  3.9999909917473445e-04  3.9999909917679715e-04  3.9999909917814351e-04  3.9999909917902161e-04  3.9999909917959434e-04  3.9999909917996812e-04  3.9999909918021184e-04  3.9999909918037025e-04  3.9999909918047373e-04  3.9999909918054068e-04  3.9999909918058416e-04  3.9999909918061208e-04  3.9999909918062980e-04  3.9999909918064054e-04  3.9999909918064683e-04  3.9999909918065024e-04  3.9999909918065105e-04  3.9999909918065040e-04  3.9999909918064818e-04  3.9999909918064471e-04  3.9999909918063994e-04  3.9999909918063349e-04  3.9999909918062563e-04  3.9999909918061582e-04  3.9999909918060335e-04  3.9999909918058801e-04  3.9999909918056931e-04  3.9999909918054600e-04  3.9999909918051710e-04  3.9999909918048186e-04  3.9999909918043757e-04  3.9999909918038326e-04  3.9999909918031495e-04  3.9999909918022979e-04  3.9999909918012251e-04  3.9999909917998622e-04  3.9999909917981118e-04  3.9999909917958339e-04  3.9999909917928192e-04  3.9999909917887654e-04  3.9999909917832132e-04  3.9999909917754617e-04  3.9999909917644619e-04  3.9999909917485908e-04  3.9999909917253775e-04  3.9999909916910360e-04  3.9999909916397467e-04  3.9999909915626128e-04  3.9999909914459141e-04  3.9999909912688715e-04  3.9999909909986368e-04  3.9999909905885970e-04  3.9999909899532816e-04  3.9999909890139771e-04  3.9999909874547789e-04  3.9999909855199285e-04  3.9999909808637811e-04  3.9999909800412744e-04  3.9999909551993333e-04  3.9999910051342598e-04  3.9999907528240694e-04  3.9999915945429233e-04  3.9999882906101292e-04  4.0000004193868117e-04  3.9999545530437726e-04  4.0001264649278464e-04  3.9994761595608193e-04  4.0019483533746590e-04  3.9924311884084962e-04  4.0298147318765026e-04  3.8769985301947122e-04  4.5636493862234793e-04  0.0000000000000000e+00  </DataArray> 
</PointData> 
</Piece>
</UnstructuredGrid>
</VTKFile>