<?xml version="1.0"?>
<VTKFile type="UnstructuredGrid"  version="0.1"  >
<UnstructuredGrid>
<Piece  NumberOfPoints="101" NumberOfCells="100">
<Points>
<DataArray  type="Float64"  NumberOfComponents="3"  format="ascii">0 0 0  1e-07 0 0  2e-07 0 0  3e-07 0 0  4e-07 0 0  5e-07 0 0  6.000000000000001e-07 0 0  7.000000000000001e-07 0 0  8.000000000000001e-07 0 0  9.000000000000001e-07 0 0  1e-06 0 0  1.1e-06 0 0  1.2e-06 0 0  1.3e-06 0 0  1.4e-06 0 0  1.5e-06 0 0  1.6e-06 0 0  1.7e-06 0 0  1.8e-06 0 0  1.9e-06 0 0  2e-06 0 0  2.1e-06 0 0  2.2e-06 0 0  2.3e-06 0 0  2.4e-06 0 0  2.5e-06 0 0  2.600000000000001e-06 0 0  2.7e-06 0 0  2.8e-06 0 0  2.9e-06 0 0  3e-06 0 0  3.1e-06 0 0  3.2e-06 0 0  3.300000000000001e-06 0 0  3.4e-06 0 0  3.5e-06 0 0  3.6e-06 0 0  3.700000000000001e-06 0 0  3.8e-06 0 0  3.900000000000001e-06 0 0  4e-06 0 0  4.100000000000001e-06 0 0  4.2e-06 0 0  4.3e-06 0 0  4.4e-06 0 0  4.5e-06 0 0  4.6e-06 0 0  4.700000000000001e-06 0 0  4.800000000000001e-06 0 0  4.900000000000001e-06 0 0  5e-06 0 0  5.1e-06 0 0  5.200000000000001e-06 0 0  5.300000000000001e-06 0 0  5.4e-06 0 0  5.500000000000001e-06 0 0  5.600000000000001e-06 0 0  5.7e-06 0 0  5.8e-06 0 0  5.9e-06 0 0  6e-06 0 0  6.100000000000001e-06 0 0  6.2e-06 0 0  6.300000000000001e-06 0 0  6.400000000000001e-06 0 0  6.5e-06 0 0  6.600000000000001e-06 0 0  6.7e-06 0 0  6.8e-06 0 0  6.900000000000001e-06 0 0  7.000000000000001e-06 0 0  7.1e-06 0 0  7.200000000000001e-06 0 0  7.3e-06 0 0  7.400000000000001e-06 0 0  7.5e-06 0 0  7.6e-06 0 0  7.700000000000001e-06 0 0  7.800000000000002e-06 0 0  7.900000000000001e-06 0 0  8e-06 0 0  8.1e-06 0 0  8.200000000000001e-06 0 0  8.300000000000002e-06 0 0  8.400000000000001e-06 0 0  8.5e-06 0 0  8.600000000000001e-06 0 0  8.700000000000001e-06 0 0  8.8e-06 0 0  8.900000000000001e-06 0 0  9e-06 0 0  9.100000000000001e-06 0 0  9.2e-06 0 0  9.300000000000001e-06 0 0  9.400000000000001e-06 0 0  9.500000000000001e-06 0 0  9.600000000000001e-06 0 0  9.7e-06 0 0  9.800000000000001e-06 0 0  9.9e-06 0 0  1e-05 0 0  </DataArray>
</Points>
<Cells>
<DataArray  type="UInt32"  Name="connectivity"  format="ascii">0 1  1 2  2 3  3 4  4 5  5 6  6 7  7 8  8 9  9 10  10 11  11 12  12 13  13 14  14 15  15 16  16 17  17 18  18 19  19 20  20 21  21 22  22 23  23 24  24 25  25 26  26 27  27 28  28 29  29 30  30 31  31 32  32 33  33 34  34 35  35 36  36 37  37 38  38 39  39 40  40 41  41 42  42 43  43 44  44 45  45 46  46 47  47 48  48 49  49 50  50 51  51 52  52 53  53 54  54 55  55 56  56 57  57 58  58 59  59 60  60 61  61 62  62 63  63 64  64 65  65 66  66 67  67 68  68 69  69 70  70 71  71 72  72 73  73 74  74 75  75 76  76 77  77 78  78 79  79 80  80 81  81 82  82 83  83 84  84 85  85 86  86 87  87 88  88 89  89 90  90 91  91 92  92 93  93 94  94 95  95 96  96 97  97 98  98 99  99 100  </DataArray>
<DataArray  type="UInt32"  Name="offsets"  format="ascii">2 4 6 8 10 12 14 16 18 20 22 24 26 28 30 32 34 36 38 40 42 44 46 48 50 52 54 56 58 60 62 64 66 68 70 72 74 76 78 80 82 84 86 88 90 92 94 96 98 100 102 104 106 108 110 112 114 116 118 120 122 124 126 128 130 132 134 136 138 140 142 144 146 148 150 152 154 156 158 160 162 164 166 168 170 172 174 176 178 180 182 184 186 188 190 192 194 196 198 200 </DataArray>
<DataArray  type="UInt8"  Name="types"  format="ascii">3 3 3 3 3 3 3 3 3 3 3 3 3 3 3 3 3 3 3 3 3 3 3 3 3 3 3 3 3 3 3 3 3 3 3 3 3 3 3 3 3 3 3 3 3 3 3 3 3 3 3 3 3 3 3 3 3 3 3 3 3 3 3 3 3 3 3 3 3 3 3 3 3 3 3 3 3 3 3 3 3 3 3 3 3 3 3 3 3 3 3 3 3 3 3 3 3 3 3 3 </DataArray>
</Cells>
<PointData  Scalars="f_38"> 
<DataArray  type="Float64"  Name="f_38"  format="ascii">0.0000000000000000e+00  2.3693890745459886e-04  3.9836307660467475e-04  5.0338461261068218e-04  5.7194612781665151e-04  6.1664166686308094e-04  6.4575987913399551e-04  6.6471319093201005e-04  6.7703966350720626e-04  6.8504954066941697e-04  6.9025021153903304e-04  6.9362430080538678e-04  6.9581175550462648e-04  6.9722895594329895e-04  6.9814656920306128e-04  6.9874038566271823e-04  6.9912448015310605e-04  6.9937282065592687e-04  6.9953333451180347e-04  6.9963705560524103e-04  6.9970406700326773e-04  6.9974735819649159e-04  6.9977532663851759e-04  6.9979339881234923e-04  6.9980507998643529e-04  6.9981263357818445e-04  6.9981752056890334e-04  6.9982068358228657e-04  6.9982273046354329e-04  6.9982405287137995e-04  6.9982490286391464e-04  6.9982544234047886e-04  6.9982577494476098e-04  6.9982596663393940e-04  6.9982605891972681e-04  6.9982607736659432e-04  6.9982603701511262e-04  6.9982594580631527e-04  6.9982580670101529e-04  6.9982561894145760e-04  6.9982537874328419e-04  6.9982507960223372e-04  6.9982471233205243e-04  6.9982426490459006e-04  6.9982372213137967e-04  6.9982306520240437e-04  6.9982227107815917e-04  6.9982131171239092e-04  6.9982015306213965e-04  6.9981875381592900e-04  6.9981706373663374e-04  6.9981502146862799e-04  6.9981255159479183e-04  6.9980956064363701e-04  6.9980593163778023e-04  6.9980151664394367e-04  6.9979612664095373e-04  6.9978951788714076e-04  6.9978137387996238e-04  6.9977128201658030e-04  6.9975870426348724e-04  6.9974294162199375e-04  6.9972309303616045e-04  6.9969801071893367e-04  6.9966625571872185e-04  6.9962605988729636e-04  6.9957530310673288e-04  6.9951151740643399e-04  6.9943193197453859e-04  6.9933357430929360e-04  6.9921344181572795e-04  6.9906875364828620e-04  6.9889728293300892e-04  6.9869775322117214e-04  6.9847025951667342e-04  6.9821664472478862e-04  6.9794073106496158e-04  6.9764828035425027e-04  6.9734654579553773e-04  6.9704328436394477e-04  6.9674511665174027e-04  6.9645514810257666e-04  6.9616983931941471e-04  6.9587516075619773e-04  6.9554193100904160e-04  6.9511982943455805e-04  6.9452895518717656e-04  6.9364702406536931e-04  6.9228931891314298e-04  6.9017716084606698e-04  6.8688862289592882e-04  6.8178204557034342e-04  6.7387807097340927e-04  6.6167843642788587e-04  6.4288834472063733e-04  6.1399112712153122e-04  5.6959983583985019e-04  5.0145029930281058e-04  3.9696533249541964e-04  2.3619034004835465e-04  0.0000000000000000e+00  </DataArray> 
</PointData> 
</Piece>
</UnstructuredGrid>
</VTKFile>