<?xml version="1.0"?>
<VTKFile type="UnstructuredGrid"  version="0.1"  >
<UnstructuredGrid>
<Piece  NumberOfPoints="101" NumberOfCells="100">
<Points>
<DataArray  type="Float64"  NumberOfComponents="3"  format="ascii">0 0 0  1e-07 0 0  2e-07 0 0  3e-07 0 0  4e-07 0 0  5e-07 0 0  6.000000000000001e-07 0 0  7.000000000000001e-07 0 0  8.000000000000001e-07 0 0  9.000000000000001e-07 0 0  1e-06 0 0  1.1e-06 0 0  1.2e-06 0 0  1.3e-06 0 0  1.4e-06 0 0  1.5e-06 0 0  1.6e-06 0 0  1.7e-06 0 0  1.8e-06 0 0  1.9e-06 0 0  2e-06 0 0  2.1e-06 0 0  2.2e-06 0 0  2.3e-06 0 0  2.4e-06 0 0  2.5e-06 0 0  2.600000000000001e-06 0 0  2.7e-06 0 0  2.8e-06 0 0  2.9e-06 0 0  3e-06 0 0  3.1e-06 0 0  3.2e-06 0 0  3.300000000000001e-06 0 0  3.4e-06 0 0  3.5e-06 0 0  3.6e-06 0 0  3.700000000000001e-06 0 0  3.8e-06 0 0  3.900000000000001e-06 0 0  4e-06 0 0  4.100000000000001e-06 0 0  4.2e-06 0 0  4.3e-06 0 0  4.4e-06 0 0  4.5e-06 0 0  4.6e-06 0 0  4.700000000000001e-06 0 0  4.800000000000001e-06 0 0  4.900000000000001e-06 0 0  5e-06 0 0  5.1e-06 0 0  5.200000000000001e-06 0 0  5.300000000000001e-06 0 0  5.4e-06 0 0  5.500000000000001e-06 0 0  5.600000000000001e-06 0 0  5.7e-06 0 0  5.8e-06 0 0  5.9e-06 0 0  6e-06 0 0  6.100000000000001e-06 0 0  6.2e-06 0 0  6.300000000000001e-06 0 0  6.400000000000001e-06 0 0  6.5e-06 0 0  6.600000000000001e-06 0 0  6.7e-06 0 0  6.8e-06 0 0  6.900000000000001e-06 0 0  7.000000000000001e-06 0 0  7.1e-06 0 0  7.200000000000001e-06 0 0  7.3e-06 0 0  7.400000000000001e-06 0 0  7.5e-06 0 0  7.6e-06 0 0  7.700000000000001e-06 0 0  7.800000000000002e-06 0 0  7.900000000000001e-06 0 0  8e-06 0 0  8.1e-06 0 0  8.200000000000001e-06 0 0  8.300000000000002e-06 0 0  8.400000000000001e-06 0 0  8.5e-06 0 0  8.600000000000001e-06 0 0  8.700000000000001e-06 0 0  8.8e-06 0 0  8.900000000000001e-06 0 0  9e-06 0 0  9.100000000000001e-06 0 0  9.2e-06 0 0  9.300000000000001e-06 0 0  9.400000000000001e-06 0 0  9.500000000000001e-06 0 0  9.600000000000001e-06 0 0  9.7e-06 0 0  9.800000000000001e-06 0 0  9.9e-06 0 0  1e-05 0 0  </DataArray>
</Points>
<Cells>
<DataArray  type="UInt32"  Name="connectivity"  format="ascii">0 1  1 2  2 3  3 4  4 5  5 6  6 7  7 8  8 9  9 10  10 11  11 12  12 13  13 14  14 15  15 16  16 17  17 18  18 19  19 20  20 21  21 22  22 23  23 24  24 25  25 26  26 27  27 28  28 29  29 30  30 31  31 32  32 33  33 34  34 35  35 36  36 37  37 38  38 39  39 40  40 41  41 42  42 43  43 44  44 45  45 46  46 47  47 48  48 49  49 50  50 51  51 52  52 53  53 54  54 55  55 56  56 57  57 58  58 59  59 60  60 61  61 62  62 63  63 64  64 65  65 66  66 67  67 68  68 69  69 70  70 71  71 72  72 73  73 74  74 75  75 76  76 77  77 78  78 79  79 80  80 81  81 82  82 83  83 84  84 85  85 86  86 87  87 88  88 89  89 90  90 91  91 92  92 93  93 94  94 95  95 96  96 97  97 98  98 99  99 100  </DataArray>
<DataArray  type="UInt32"  Name="offsets"  format="ascii">2 4 6 8 10 12 14 16 18 20 22 24 26 28 30 32 34 36 38 40 42 44 46 48 50 52 54 56 58 60 62 64 66 68 70 72 74 76 78 80 82 84 86 88 90 92 94 96 98 100 102 104 106 108 110 112 114 116 118 120 122 124 126 128 130 132 134 136 138 140 142 144 146 148 150 152 154 156 158 160 162 164 166 168 170 172 174 176 178 180 182 184 186 188 190 192 194 196 198 200 </DataArray>
<DataArray  type="UInt8"  Name="types"  format="ascii">3 3 3 3 3 3 3 3 3 3 3 3 3 3 3 3 3 3 3 3 3 3 3 3 3 3 3 3 3 3 3 3 3 3 3 3 3 3 3 3 3 3 3 3 3 3 3 3 3 3 3 3 3 3 3 3 3 3 3 3 3 3 3 3 3 3 3 3 3 3 3 3 3 3 3 3 3 3 3 3 3 3 3 3 3 3 3 3 3 3 3 3 3 3 3 3 3 3 3 3 </DataArray>
</Cells>
<PointData  Scalars="f_41"> 
<DataArray  type="Float64"  Name="f_41"  format="ascii">0.0000000000000000e+00  1.1337217522256087e-03  9.6631542232614067e-04  1.0046974412551339e-03  9.9578250845178541e-04  9.9830117354371460e-04  9.9778899581037545e-04  9.9800920197646247e-04  9.9800393381298388e-04  9.9803882648873501e-04  9.9805092691021536e-04  9.9806147682738352e-04  9.9806757310812091e-04  9.9807172963911530e-04  9.9807438115560388e-04  9.9807612253468366e-04  9.9807725395796966e-04  9.9807799293014803e-04  9.9807847479996140e-04  9.9807878933620068e-04  9.9807899460836020e-04  9.9807912860298831e-04  9.9807921607046103e-04  9.9807927316998535e-04  9.9807931044564578e-04  9.9807933478040633e-04  9.9807935066707331e-04  9.9807936103857970e-04  9.9807936780958056e-04  9.9807937223001680e-04  9.9807937511589670e-04  9.9807937699994409e-04  9.9807937822994695e-04  9.9807937903295522e-04  9.9807937955720058e-04  9.9807937989945437e-04  9.9807938012289477e-04  9.9807938026876789e-04  9.9807938036399987e-04  9.9807938042617019e-04  9.9807938046675600e-04  9.9807938049324696e-04  9.9807938051053500e-04  9.9807938052181070e-04  9.9807938052915552e-04  9.9807938053392471e-04  9.9807938053700037e-04  9.9807938053894803e-04  9.9807938054012851e-04  9.9807938054076017e-04  9.9807938054095814e-04  9.9807938054075995e-04  9.9807938054012851e-04  9.9807938053894803e-04  9.9807938053700015e-04  9.9807938053392492e-04  9.9807938052915530e-04  9.9807938052181048e-04  9.9807938051053543e-04  9.9807938049324653e-04  9.9807938046675578e-04  9.9807938042617019e-04  9.9807938036400009e-04  9.9807938026876810e-04  9.9807938012289477e-04  9.9807937989945480e-04  9.9807937955720015e-04  9.9807937903295522e-04  9.9807937822994652e-04  9.9807937699994409e-04  9.9807937511589627e-04  9.9807937223001680e-04  9.9807936780958013e-04  9.9807936103858035e-04  9.9807935066707331e-04  9.9807933478040589e-04  9.9807931044564599e-04  9.9807927316998470e-04  9.9807921607046146e-04  9.9807912860298809e-04  9.9807899460835976e-04  9.9807878933620025e-04  9.9807847479996140e-04  9.9807799293014803e-04  9.9807725395797010e-04  9.9807612253468344e-04  9.9807438115560453e-04  9.9807172963911552e-04  9.9806757310812112e-04  9.9806147682738287e-04  9.9805092691021536e-04  9.9803882648873479e-04  9.9800393381298366e-04  9.9800920197646182e-04  9.9778899581037589e-04  9.9830117354371460e-04  9.9578250845178563e-04  1.0046974412551331e-03  9.6631542232614078e-04  1.1337217522256104e-03  0.0000000000000000e+00  </DataArray> 
</PointData> 
</Piece>
</UnstructuredGrid>
</VTKFile>