<?xml version="1.0"?>
<VTKFile type="UnstructuredGrid"  version="0.1"  >
<UnstructuredGrid>
<Piece  NumberOfPoints="101" NumberOfCells="100">
<Points>
<DataArray  type="Float64"  NumberOfComponents="3"  format="ascii">0 0 0  1e-07 0 0  2e-07 0 0  3e-07 0 0  4e-07 0 0  5e-07 0 0  6.000000000000001e-07 0 0  7.000000000000001e-07 0 0  8.000000000000001e-07 0 0  9.000000000000001e-07 0 0  1e-06 0 0  1.1e-06 0 0  1.2e-06 0 0  1.3e-06 0 0  1.4e-06 0 0  1.5e-06 0 0  1.6e-06 0 0  1.7e-06 0 0  1.8e-06 0 0  1.9e-06 0 0  2e-06 0 0  2.1e-06 0 0  2.2e-06 0 0  2.3e-06 0 0  2.4e-06 0 0  2.5e-06 0 0  2.600000000000001e-06 0 0  2.7e-06 0 0  2.8e-06 0 0  2.9e-06 0 0  3e-06 0 0  3.1e-06 0 0  3.2e-06 0 0  3.300000000000001e-06 0 0  3.4e-06 0 0  3.5e-06 0 0  3.6e-06 0 0  3.700000000000001e-06 0 0  3.8e-06 0 0  3.900000000000001e-06 0 0  4e-06 0 0  4.100000000000001e-06 0 0  4.2e-06 0 0  4.3e-06 0 0  4.4e-06 0 0  4.5e-06 0 0  4.6e-06 0 0  4.700000000000001e-06 0 0  4.800000000000001e-06 0 0  4.900000000000001e-06 0 0  5e-06 0 0  5.1e-06 0 0  5.200000000000001e-06 0 0  5.300000000000001e-06 0 0  5.4e-06 0 0  5.500000000000001e-06 0 0  5.600000000000001e-06 0 0  5.7e-06 0 0  5.8e-06 0 0  5.9e-06 0 0  6e-06 0 0  6.100000000000001e-06 0 0  6.2e-06 0 0  6.300000000000001e-06 0 0  6.400000000000001e-06 0 0  6.5e-06 0 0  6.600000000000001e-06 0 0  6.7e-06 0 0  6.8e-06 0 0  6.900000000000001e-06 0 0  7.000000000000001e-06 0 0  7.1e-06 0 0  7.200000000000001e-06 0 0  7.3e-06 0 0  7.400000000000001e-06 0 0  7.5e-06 0 0  7.6e-06 0 0  7.700000000000001e-06 0 0  7.800000000000002e-06 0 0  7.900000000000001e-06 0 0  8e-06 0 0  8.1e-06 0 0  8.200000000000001e-06 0 0  8.300000000000002e-06 0 0  8.400000000000001e-06 0 0  8.5e-06 0 0  8.600000000000001e-06 0 0  8.700000000000001e-06 0 0  8.8e-06 0 0  8.900000000000001e-06 0 0  9e-06 0 0  9.100000000000001e-06 0 0  9.2e-06 0 0  9.300000000000001e-06 0 0  9.400000000000001e-06 0 0  9.500000000000001e-06 0 0  9.600000000000001e-06 0 0  9.7e-06 0 0  9.800000000000001e-06 0 0  9.9e-06 0 0  1e-05 0 0  </DataArray>
</Points>
<Cells>
<DataArray  type="UInt32"  Name="connectivity"  format="ascii">0 1  1 2  2 3  3 4  4 5  5 6  6 7  7 8  8 9  9 10  10 11  11 12  12 13  13 14  14 15  15 16  16 17  17 18  18 19  19 20  20 21  21 22  22 23  23 24  24 25  25 26  26 27  27 28  28 29  29 30  30 31  31 32  32 33  33 34  34 35  35 36  36 37  37 38  38 39  39 40  40 41  41 42  42 43  43 44  44 45  45 46  46 47  47 48  48 49  49 50  50 51  51 52  52 53  53 54  54 55  55 56  56 57  57 58  58 59  59 60  60 61  61 62  62 63  63 64  64 65  65 66  66 67  67 68  68 69  69 70  70 71  71 72  72 73  73 74  74 75  75 76  76 77  77 78  78 79  79 80  80 81  81 82  82 83  83 84  84 85  85 86  86 87  87 88  88 89  89 90  90 91  91 92  92 93  93 94  94 95  95 96  96 97  97 98  98 99  99 100  </DataArray>
<DataArray  type="UInt32"  Name="offsets"  format="ascii">2 4 6 8 10 12 14 16 18 20 22 24 26 28 30 32 34 36 38 40 42 44 46 48 50 52 54 56 58 60 62 64 66 68 70 72 74 76 78 80 82 84 86 88 90 92 94 96 98 100 102 104 106 108 110 112 114 116 118 120 122 124 126 128 130 132 134 136 138 140 142 144 146 148 150 152 154 156 158 160 162 164 166 168 170 172 174 176 178 180 182 184 186 188 190 192 194 196 198 200 </DataArray>
<DataArray  type="UInt8"  Name="types"  format="ascii">3 3 3 3 3 3 3 3 3 3 3 3 3 3 3 3 3 3 3 3 3 3 3 3 3 3 3 3 3 3 3 3 3 3 3 3 3 3 3 3 3 3 3 3 3 3 3 3 3 3 3 3 3 3 3 3 3 3 3 3 3 3 3 3 3 3 3 3 3 3 3 3 3 3 3 3 3 3 3 3 3 3 3 3 3 3 3 3 3 3 3 3 3 3 3 3 3 3 3 3 </DataArray>
</Cells>
<PointData  Scalars="f_37"> 
<DataArray  type="Float64"  Name="f_37"  format="ascii">0.0000000000000000e+00  2.3376017556941756e+06  1.3154612138904788e+07  2.3290837333976176e+07  1.5927658228377769e+07  1.9251789039803997e+07  -5.9058812273683980e+07  1.5043664114598149e+07  5.6379371310728408e+07  1.2941316003032974e+06  9.5083549822033755e+06  5.7985689705506228e+07  -3.8927523225196777e+06  1.1973639405537851e+07  1.1004351465964023e+07  3.3362132313637003e+07  -1.3135149036005845e+07  8.0397677905748077e+06  7.8269250637453338e+06  1.3976808928686570e+07  1.9833717492682145e+06  8.0674181026496753e+07  -4.1216689762487203e+08  5.2872934074675128e+07  -6.6232933907494573e+06  9.3076766898142044e+06  7.8439490106825363e+06  9.9195633992838785e+06  1.1035330738506464e+07  1.2720893306312198e+07  1.4270977040854802e+07  1.9779467478676524e+07  1.6700398761054130e+07  1.0379358875478981e+08  -5.1406187903072193e+07  -3.3682039818117628e+05  -1.6860154584950458e+06  2.4732709203080339e+06  3.7290039215700966e+06  4.9149253410757361e+06  5.7009334188851174e+06  6.3296279523475496e+06  6.8244249033232378e+06  7.2269571539836032e+06  7.5547926735766269e+06  7.8206307832579734e+06  8.0317864108482823e+06  8.1928368814958744e+06  8.3064513349371860e+06  8.3741308287325213e+06  8.3966166010680627e+06  8.3741308287237501e+06  8.3064513349537859e+06  8.1928368814914096e+06  8.0317864108454511e+06  7.8206307832681015e+06  7.5547926735807685e+06  7.2269571539934659e+06  6.8244249033028083e+06  6.3296279523472907e+06  5.7009334188746018e+06  4.9149253410875993e+06  3.7290039215286104e+06  2.4732709202998667e+06  -1.6860154585344528e+06  -3.3682039823153045e+05  -5.1406187903058507e+07  1.0379358875430547e+08  1.6700398761031432e+07  1.9779467478705272e+07  1.4270977040830651e+07  1.2720893306333592e+07  1.1035330738497229e+07  9.9195633992859293e+06  7.8439490106715802e+06  9.3076766898588780e+06  -6.6232933910434591e+06  5.2872934076245658e+07  -4.1216689763632500e+08  8.0674181027995422e+07  1.9833717489698222e+06  1.3976808928725271e+07  7.8269250637161573e+06  8.0397677905952418e+06  -1.3135149036040578e+07  3.3362132313605316e+07  1.1004351465991369e+07  1.1973639405524159e+07  -3.8927523225144935e+06  5.7985689705278300e+07  9.5083549822032340e+06  1.2941316003279707e+06  5.6379371310577333e+07  1.5043664114666825e+07  -5.9058812273957968e+07  1.9251789039829291e+07  1.5927658228387754e+07  2.3290837333987623e+07  1.3154612138940819e+07  2.3376017556214258e+06  0.0000000000000000e+00  </DataArray> 
</PointData> 
</Piece>
</UnstructuredGrid>
</VTKFile>