<?xml version="1.0"?>
<VTKFile type="UnstructuredGrid"  version="0.1"  >
<UnstructuredGrid>
<Piece  NumberOfPoints="101" NumberOfCells="100">
<Points>
<DataArray  type="Float64"  NumberOfComponents="3"  format="ascii">0 0 0  1e-07 0 0  2e-07 0 0  3e-07 0 0  4e-07 0 0  5e-07 0 0  6.000000000000001e-07 0 0  7.000000000000001e-07 0 0  8.000000000000001e-07 0 0  9.000000000000001e-07 0 0  1e-06 0 0  1.1e-06 0 0  1.2e-06 0 0  1.3e-06 0 0  1.4e-06 0 0  1.5e-06 0 0  1.6e-06 0 0  1.7e-06 0 0  1.8e-06 0 0  1.9e-06 0 0  2e-06 0 0  2.1e-06 0 0  2.2e-06 0 0  2.3e-06 0 0  2.4e-06 0 0  2.5e-06 0 0  2.600000000000001e-06 0 0  2.7e-06 0 0  2.8e-06 0 0  2.9e-06 0 0  3e-06 0 0  3.1e-06 0 0  3.2e-06 0 0  3.300000000000001e-06 0 0  3.4e-06 0 0  3.5e-06 0 0  3.6e-06 0 0  3.700000000000001e-06 0 0  3.8e-06 0 0  3.900000000000001e-06 0 0  4e-06 0 0  4.100000000000001e-06 0 0  4.2e-06 0 0  4.3e-06 0 0  4.4e-06 0 0  4.5e-06 0 0  4.6e-06 0 0  4.700000000000001e-06 0 0  4.800000000000001e-06 0 0  4.900000000000001e-06 0 0  5e-06 0 0  5.1e-06 0 0  5.200000000000001e-06 0 0  5.300000000000001e-06 0 0  5.4e-06 0 0  5.500000000000001e-06 0 0  5.600000000000001e-06 0 0  5.7e-06 0 0  5.8e-06 0 0  5.9e-06 0 0  6e-06 0 0  6.100000000000001e-06 0 0  6.2e-06 0 0  6.300000000000001e-06 0 0  6.400000000000001e-06 0 0  6.5e-06 0 0  6.600000000000001e-06 0 0  6.7e-06 0 0  6.8e-06 0 0  6.900000000000001e-06 0 0  7.000000000000001e-06 0 0  7.1e-06 0 0  7.200000000000001e-06 0 0  7.3e-06 0 0  7.400000000000001e-06 0 0  7.5e-06 0 0  7.6e-06 0 0  7.700000000000001e-06 0 0  7.800000000000002e-06 0 0  7.900000000000001e-06 0 0  8e-06 0 0  8.1e-06 0 0  8.200000000000001e-06 0 0  8.300000000000002e-06 0 0  8.400000000000001e-06 0 0  8.5e-06 0 0  8.600000000000001e-06 0 0  8.700000000000001e-06 0 0  8.8e-06 0 0  8.900000000000001e-06 0 0  9e-06 0 0  9.100000000000001e-06 0 0  9.2e-06 0 0  9.300000000000001e-06 0 0  9.400000000000001e-06 0 0  9.500000000000001e-06 0 0  9.600000000000001e-06 0 0  9.7e-06 0 0  9.800000000000001e-06 0 0  9.9e-06 0 0  1e-05 0 0  </DataArray>
</Points>
<Cells>
<DataArray  type="UInt32"  Name="connectivity"  format="ascii">0 1  1 2  2 3  3 4  4 5  5 6  6 7  7 8  8 9  9 10  10 11  11 12  12 13  13 14  14 15  15 16  16 17  17 18  18 19  19 20  20 21  21 22  22 23  23 24  24 25  25 26  26 27  27 28  28 29  29 30  30 31  31 32  32 33  33 34  34 35  35 36  36 37  37 38  38 39  39 40  40 41  41 42  42 43  43 44  44 45  45 46  46 47  47 48  48 49  49 50  50 51  51 52  52 53  53 54  54 55  55 56  56 57  57 58  58 59  59 60  60 61  61 62  62 63  63 64  64 65  65 66  66 67  67 68  68 69  69 70  70 71  71 72  72 73  73 74  74 75  75 76  76 77  77 78  78 79  79 80  80 81  81 82  82 83  83 84  84 85  85 86  86 87  87 88  88 89  89 90  90 91  91 92  92 93  93 94  94 95  95 96  96 97  97 98  98 99  99 100  </DataArray>
<DataArray  type="UInt32"  Name="offsets"  format="ascii">2 4 6 8 10 12 14 16 18 20 22 24 26 28 30 32 34 36 38 40 42 44 46 48 50 52 54 56 58 60 62 64 66 68 70 72 74 76 78 80 82 84 86 88 90 92 94 96 98 100 102 104 106 108 110 112 114 116 118 120 122 124 126 128 130 132 134 136 138 140 142 144 146 148 150 152 154 156 158 160 162 164 166 168 170 172 174 176 178 180 182 184 186 188 190 192 194 196 198 200 </DataArray>
<DataArray  type="UInt8"  Name="types"  format="ascii">3 3 3 3 3 3 3 3 3 3 3 3 3 3 3 3 3 3 3 3 3 3 3 3 3 3 3 3 3 3 3 3 3 3 3 3 3 3 3 3 3 3 3 3 3 3 3 3 3 3 3 3 3 3 3 3 3 3 3 3 3 3 3 3 3 3 3 3 3 3 3 3 3 3 3 3 3 3 3 3 3 3 3 3 3 3 3 3 3 3 3 3 3 3 3 3 3 3 3 3 </DataArray>
</Cells>
<PointData  Scalars="f_44"> 
<DataArray  type="Float64"  Name="f_44"  format="ascii">0.0000000000000000e+00  4.5636493479980881e-04  3.8769985566690525e-04  4.0298147204686536e-04  3.9924311926915063e-04  4.0019483519443470e-04  3.9994761600709218e-04  4.0001264648134561e-04  3.9999545531276313e-04  4.0000004194136425e-04  3.9999882906567661e-04  3.9999915945863543e-04  3.9999907528705036e-04  3.9999910051814313e-04  3.9999909552473185e-04  3.9999909800894726e-04  3.9999909809117597e-04  3.9999909855672290e-04  3.9999909875009567e-04  3.9999909890586375e-04  3.9999909899960588e-04  3.9999909906291884e-04  3.9999909910367877e-04  3.9999909913043992e-04  3.9999909914786895e-04  3.9999909915925817e-04  3.9999909916669070e-04  3.9999909917154365e-04  3.9999909917471142e-04  3.9999909917677991e-04  3.9999909917813023e-04  3.9999909917901152e-04  3.9999909917958724e-04  3.9999909917996264e-04  3.9999909918020821e-04  3.9999909918036808e-04  3.9999909918047265e-04  3.9999909918054101e-04  3.9999909918058546e-04  3.9999909918061468e-04  3.9999909918063354e-04  3.9999909918064590e-04  3.9999909918065404e-04  3.9999909918065935e-04  3.9999909918066271e-04  3.9999909918066499e-04  3.9999909918066634e-04  3.9999909918066715e-04  3.9999909918066775e-04  3.9999909918066791e-04  3.9999909918066813e-04  3.9999909918066775e-04  3.9999909918066770e-04  3.9999909918066650e-04  3.9999909918066580e-04  3.9999909918066423e-04  3.9999909918066157e-04  3.9999909918065821e-04  3.9999909918065241e-04  3.9999909918064422e-04  3.9999909918063159e-04  3.9999909918061224e-04  3.9999909918058264e-04  3.9999909918053770e-04  3.9999909918046907e-04  3.9999909918036369e-04  3.9999909918020322e-04  3.9999909917995706e-04  3.9999909917958073e-04  3.9999909917900431e-04  3.9999909917812210e-04  3.9999909917677113e-04  3.9999909917470182e-04  3.9999909917153297e-04  3.9999909916667905e-04  3.9999909915924571e-04  3.9999909914785567e-04  3.9999909913042539e-04  3.9999909910366392e-04  3.9999909906290280e-04  3.9999909899958962e-04  3.9999909890584684e-04  3.9999909875007821e-04  3.9999909855670485e-04  3.9999909809115792e-04  3.9999909800892916e-04  3.9999909552471385e-04  3.9999910051812502e-04  3.9999907528703274e-04  3.9999915945861884e-04  3.9999882906565899e-04  4.0000004194135368e-04  3.9999545531273103e-04  4.0001264648138903e-04  3.9994761600689566e-04  4.0019483519498759e-04  3.9924311926748654e-04  4.0298147205131634e-04  3.8769985565653990e-04  4.5636493481479877e-04  0.0000000000000000e+00  </DataArray> 
</PointData> 
</Piece>
</UnstructuredGrid>
</VTKFile>