<?xml version="1.0"?>
<VTKFile type="UnstructuredGrid"  version="0.1"  >
<UnstructuredGrid>
<Piece  NumberOfPoints="101" NumberOfCells="100">
<Points>
<DataArray  type="Float64"  NumberOfComponents="3"  format="ascii">0 0 0  1e-07 0 0  2e-07 0 0  3e-07 0 0  4e-07 0 0  5e-07 0 0  6.000000000000001e-07 0 0  7.000000000000001e-07 0 0  8.000000000000001e-07 0 0  9.000000000000001e-07 0 0  1e-06 0 0  1.1e-06 0 0  1.2e-06 0 0  1.3e-06 0 0  1.4e-06 0 0  1.5e-06 0 0  1.6e-06 0 0  1.7e-06 0 0  1.8e-06 0 0  1.9e-06 0 0  2e-06 0 0  2.1e-06 0 0  2.2e-06 0 0  2.3e-06 0 0  2.4e-06 0 0  2.5e-06 0 0  2.600000000000001e-06 0 0  2.7e-06 0 0  2.8e-06 0 0  2.9e-06 0 0  3e-06 0 0  3.1e-06 0 0  3.2e-06 0 0  3.300000000000001e-06 0 0  3.4e-06 0 0  3.5e-06 0 0  3.6e-06 0 0  3.700000000000001e-06 0 0  3.8e-06 0 0  3.900000000000001e-06 0 0  4e-06 0 0  4.100000000000001e-06 0 0  4.2e-06 0 0  4.3e-06 0 0  4.4e-06 0 0  4.5e-06 0 0  4.6e-06 0 0  4.700000000000001e-06 0 0  4.800000000000001e-06 0 0  4.900000000000001e-06 0 0  5e-06 0 0  5.1e-06 0 0  5.200000000000001e-06 0 0  5.300000000000001e-06 0 0  5.4e-06 0 0  5.500000000000001e-06 0 0  5.600000000000001e-06 0 0  5.7e-06 0 0  5.8e-06 0 0  5.9e-06 0 0  6e-06 0 0  6.100000000000001e-06 0 0  6.2e-06 0 0  6.300000000000001e-06 0 0  6.400000000000001e-06 0 0  6.5e-06 0 0  6.600000000000001e-06 0 0  6.7e-06 0 0  6.8e-06 0 0  6.900000000000001e-06 0 0  7.000000000000001e-06 0 0  7.1e-06 0 0  7.200000000000001e-06 0 0  7.3e-06 0 0  7.400000000000001e-06 0 0  7.5e-06 0 0  7.6e-06 0 0  7.700000000000001e-06 0 0  7.800000000000002e-06 0 0  7.900000000000001e-06 0 0  8e-06 0 0  8.1e-06 0 0  8.200000000000001e-06 0 0  8.300000000000002e-06 0 0  8.400000000000001e-06 0 0  8.5e-06 0 0  8.600000000000001e-06 0 0  8.700000000000001e-06 0 0  8.8e-06 0 0  8.900000000000001e-06 0 0  9e-06 0 0  9.100000000000001e-06 0 0  9.2e-06 0 0  9.300000000000001e-06 0 0  9.400000000000001e-06 0 0  9.500000000000001e-06 0 0  9.600000000000001e-06 0 0  9.7e-06 0 0  9.800000000000001e-06 0 0  9.9e-06 0 0  1e-05 0 0  </DataArray>
</Points>
<Cells>
<DataArray  type="UInt32"  Name="connectivity"  format="ascii">0 1  1 2  2 3  3 4  4 5  5 6  6 7  7 8  8 9  9 10  10 11  11 12  12 13  13 14  14 15  15 16  16 17  17 18  18 19  19 20  20 21  21 22  22 23  23 24  24 25  25 26  26 27  27 28  28 29  29 30  30 31  31 32  32 33  33 34  34 35  35 36  36 37  37 38  38 39  39 40  40 41  41 42  42 43  43 44  44 45  45 46  46 47  47 48  48 49  49 50  50 51  51 52  52 53  53 54  54 55  55 56  56 57  57 58  58 59  59 60  60 61  61 62  62 63  63 64  64 65  65 66  66 67  67 68  68 69  69 70  70 71  71 72  72 73  73 74  74 75  75 76  76 77  77 78  78 79  79 80  80 81  81 82  82 83  83 84  84 85  85 86  86 87  87 88  88 89  89 90  90 91  91 92  92 93  93 94  94 95  95 96  96 97  97 98  98 99  99 100  </DataArray>
<DataArray  type="UInt32"  Name="offsets"  format="ascii">2 4 6 8 10 12 14 16 18 20 22 24 26 28 30 32 34 36 38 40 42 44 46 48 50 52 54 56 58 60 62 64 66 68 70 72 74 76 78 80 82 84 86 88 90 92 94 96 98 100 102 104 106 108 110 112 114 116 118 120 122 124 126 128 130 132 134 136 138 140 142 144 146 148 150 152 154 156 158 160 162 164 166 168 170 172 174 176 178 180 182 184 186 188 190 192 194 196 198 200 </DataArray>
<DataArray  type="UInt8"  Name="types"  format="ascii">3 3 3 3 3 3 3 3 3 3 3 3 3 3 3 3 3 3 3 3 3 3 3 3 3 3 3 3 3 3 3 3 3 3 3 3 3 3 3 3 3 3 3 3 3 3 3 3 3 3 3 3 3 3 3 3 3 3 3 3 3 3 3 3 3 3 3 3 3 3 3 3 3 3 3 3 3 3 3 3 3 3 3 3 3 3 3 3 3 3 3 3 3 3 3 3 3 3 3 3 </DataArray>
</Cells>
<PointData  Scalars="f_34"> 
<DataArray  type="Float64"  Name="f_34"  format="ascii">0.0000000000000000e+00  4.4799852237814500e-88  8.9555492430221980e-88  1.3422275216376649e-87  1.7875755024583465e-87  2.2311593620747071e-87  2.6725413367718355e-87  3.1112858358293962e-87  3.5469598713970842e-87  3.9791334858013603e-87  4.4073801758617586e-87  4.8312773137980393e-87  5.2504065643127799e-87  5.6643542974378095e-87  6.0727119967370497e-87  6.4750766624629165e-87  6.8710512092684132e-87  7.2602448580824278e-87  7.6422735217615015e-87  8.0167601841374620e-87  8.3833352720868652e-87  8.7416370202550502e-87  9.0913118280748648e-87  9.4320146087277530e-87  9.7634091297027493e-87  1.0085168344617393e-86  1.0396974715973027e-86  1.0698520528525961e-86  1.0989508192965278e-86  1.1269650539597536e-86  1.1538671101748610e-86  1.1796304388602904e-86  1.2042296147210733e-86  1.2276403613405299e-86  1.2498395751381603e-86  1.2708053481700896e-86  1.2905169897495635e-86  1.3089550468661588e-86  1.3261013233835546e-86  1.3419388979969240e-86  1.3564521409322166e-86  1.3696267293708607e-86  1.3814496615846545e-86  1.3919092697669036e-86  1.4009952315471354e-86  1.4086985801780347e-86  1.4150117133845391e-86  1.4199284008663676e-86  1.4234437904465744e-86  1.4255544128600621e-86  1.4262581851773265e-86  1.4255544128600587e-86  1.4234437904465684e-86  1.4199284008663591e-86  1.4150117133845279e-86  1.4086985801780210e-86  1.4009952315471190e-86  1.3919092697668841e-86  1.3814496615846321e-86  1.3696267293708350e-86  1.3564521409321877e-86  1.3419388979968918e-86  1.3261013233835199e-86  1.3089550468661214e-86  1.2905169897495240e-86  1.2708053481700485e-86  1.2498395751381176e-86  1.2276403613404865e-86  1.2042296147210297e-86  1.1796304388602463e-86  1.1538671101748172e-86  1.1269650539597101e-86  1.0989508192964842e-86  1.0698520528525534e-86  1.0396974715972604e-86  1.0085168344616984e-86  9.7634091297023546e-87  9.4320146087273744e-87  9.0913118280745041e-87  8.7416370202547073e-87  8.3833352720865491e-87  8.0167601841371691e-87  7.6422735217612283e-87  7.2602448580821706e-87  6.8710512092681766e-87  6.4750766624627031e-87  6.0727119967368506e-87  5.6643542974376229e-87  5.2504065643126138e-87  4.8312773137978875e-87  4.4073801758616283e-87  3.9791334858012442e-87  3.5469598713969887e-87  3.1112858358293118e-87  2.6725413367717614e-87  2.2311593620746500e-87  1.7875755024582978e-87  1.3422275216376324e-87  8.9555492430219591e-88  4.4799852237813691e-88  0.0000000000000000e+00  </DataArray> 
</PointData> 
</Piece>
</UnstructuredGrid>
</VTKFile>