<?xml version="1.0"?>
<VTKFile type="UnstructuredGrid"  version="0.1"  >
<UnstructuredGrid>
<Piece  NumberOfPoints="101" NumberOfCells="100">
<Points>
<DataArray  type="Float64"  NumberOfComponents="3"  format="ascii">0 0 0  1e-07 0 0  2e-07 0 0  3e-07 0 0  4e-07 0 0  5e-07 0 0  6.000000000000001e-07 0 0  7.000000000000001e-07 0 0  8.000000000000001e-07 0 0  9.000000000000001e-07 0 0  1e-06 0 0  1.1e-06 0 0  1.2e-06 0 0  1.3e-06 0 0  1.4e-06 0 0  1.5e-06 0 0  1.6e-06 0 0  1.7e-06 0 0  1.8e-06 0 0  1.9e-06 0 0  2e-06 0 0  2.1e-06 0 0  2.2e-06 0 0  2.3e-06 0 0  2.4e-06 0 0  2.5e-06 0 0  2.600000000000001e-06 0 0  2.7e-06 0 0  2.8e-06 0 0  2.9e-06 0 0  3e-06 0 0  3.1e-06 0 0  3.2e-06 0 0  3.300000000000001e-06 0 0  3.4e-06 0 0  3.5e-06 0 0  3.6e-06 0 0  3.700000000000001e-06 0 0  3.8e-06 0 0  3.900000000000001e-06 0 0  4e-06 0 0  4.100000000000001e-06 0 0  4.2e-06 0 0  4.3e-06 0 0  4.4e-06 0 0  4.5e-06 0 0  4.6e-06 0 0  4.700000000000001e-06 0 0  4.800000000000001e-06 0 0  4.900000000000001e-06 0 0  5e-06 0 0  5.1e-06 0 0  5.200000000000001e-06 0 0  5.300000000000001e-06 0 0  5.4e-06 0 0  5.500000000000001e-06 0 0  5.600000000000001e-06 0 0  5.7e-06 0 0  5.8e-06 0 0  5.9e-06 0 0  6e-06 0 0  6.100000000000001e-06 0 0  6.2e-06 0 0  6.300000000000001e-06 0 0  6.400000000000001e-06 0 0  6.5e-06 0 0  6.600000000000001e-06 0 0  6.7e-06 0 0  6.8e-06 0 0  6.900000000000001e-06 0 0  7.000000000000001e-06 0 0  7.1e-06 0 0  7.200000000000001e-06 0 0  7.3e-06 0 0  7.400000000000001e-06 0 0  7.5e-06 0 0  7.6e-06 0 0  7.700000000000001e-06 0 0  7.800000000000002e-06 0 0  7.900000000000001e-06 0 0  8e-06 0 0  8.1e-06 0 0  8.200000000000001e-06 0 0  8.300000000000002e-06 0 0  8.400000000000001e-06 0 0  8.5e-06 0 0  8.600000000000001e-06 0 0  8.700000000000001e-06 0 0  8.8e-06 0 0  8.900000000000001e-06 0 0  9e-06 0 0  9.100000000000001e-06 0 0  9.2e-06 0 0  9.300000000000001e-06 0 0  9.400000000000001e-06 0 0  9.500000000000001e-06 0 0  9.600000000000001e-06 0 0  9.7e-06 0 0  9.800000000000001e-06 0 0  9.9e-06 0 0  1e-05 0 0  </DataArray>
</Points>
<Cells>
<DataArray  type="UInt32"  Name="connectivity"  format="ascii">0 1  1 2  2 3  3 4  4 5  5 6  6 7  7 8  8 9  9 10  10 11  11 12  12 13  13 14  14 15  15 16  16 17  17 18  18 19  19 20  20 21  21 22  22 23  23 24  24 25  25 26  26 27  27 28  28 29  29 30  30 31  31 32  32 33  33 34  34 35  35 36  36 37  37 38  38 39  39 40  40 41  41 42  42 43  43 44  44 45  45 46  46 47  47 48  48 49  49 50  50 51  51 52  52 53  53 54  54 55  55 56  56 57  57 58  58 59  59 60  60 61  61 62  62 63  63 64  64 65  65 66  66 67  67 68  68 69  69 70  70 71  71 72  72 73  73 74  74 75  75 76  76 77  77 78  78 79  79 80  80 81  81 82  82 83  83 84  84 85  85 86  86 87  87 88  88 89  89 90  90 91  91 92  92 93  93 94  94 95  95 96  96 97  97 98  98 99  99 100  </DataArray>
<DataArray  type="UInt32"  Name="offsets"  format="ascii">2 4 6 8 10 12 14 16 18 20 22 24 26 28 30 32 34 36 38 40 42 44 46 48 50 52 54 56 58 60 62 64 66 68 70 72 74 76 78 80 82 84 86 88 90 92 94 96 98 100 102 104 106 108 110 112 114 116 118 120 122 124 126 128 130 132 134 136 138 140 142 144 146 148 150 152 154 156 158 160 162 164 166 168 170 172 174 176 178 180 182 184 186 188 190 192 194 196 198 200 </DataArray>
<DataArray  type="UInt8"  Name="types"  format="ascii">3 3 3 3 3 3 3 3 3 3 3 3 3 3 3 3 3 3 3 3 3 3 3 3 3 3 3 3 3 3 3 3 3 3 3 3 3 3 3 3 3 3 3 3 3 3 3 3 3 3 3 3 3 3 3 3 3 3 3 3 3 3 3 3 3 3 3 3 3 3 3 3 3 3 3 3 3 3 3 3 3 3 3 3 3 3 3 3 3 3 3 3 3 3 3 3 3 3 3 3 </DataArray>
</Cells>
<PointData  Scalars="f_34"> 
<DataArray  type="Float64"  Name="f_34"  format="ascii">0.0000000000000000e+00  1.1730206788687130e-83  2.3448837279478850e-83  3.5144326598888165e-83  4.6805132710970351e-83  5.8419747807918961e-83  6.9976709666882803e-83  8.1464612961795996e-83  9.2872120519057804e-83  1.0418797450595434e-82  1.1540100754078012e-82  1.2650015371369567e-82  1.3747445950744442e-82  1.4831309460715195e-82  1.5900536258853909e-82  1.6954071147400150e-82  1.7990874414613724e-82  1.9009922860844668e-82  2.0010210808307760e-82  2.0990751093565085e-82  2.1950576041737157e-82  2.2888738421481189e-82  2.3804312379794085e-82  2.4696394355717592e-82  2.5564103972043829e-82  2.6406584904141318e-82  2.7223005725044053e-82  2.8012560725969464e-82  2.8774470711455799e-82  2.9507983768333857e-82  3.0212376007774624e-82  3.0886952279680080e-82  3.1531046858712431e-82  3.2144024101284652e-82  3.2725279072863958e-82  3.3274238144969174e-82  3.3790359561272737e-82  3.4273133972248871e-82  3.4722084937839993e-82  3.5136769397645587e-82  3.5516778108169271e-82  3.5861736046692778e-82  3.6171302781378057e-82  3.6445172807232423e-82  3.6683075847605109e-82  3.6884777120917619e-82  3.7050077572364910e-82  3.7178814070358352e-82  3.7270859567516974e-82  3.7326123226047857e-82  3.7344550507392096e-82  3.7326123226047775e-82  3.7270859567516816e-82  3.7178814070358124e-82  3.7050077572364618e-82  3.6884777120917262e-82  3.6683075847604670e-82  3.6445172807231920e-82  3.6171302781377466e-82  3.5861736046692105e-82  3.5516778108168516e-82  3.5136769397644738e-82  3.4722084937839086e-82  3.4273133972247894e-82  3.3790359561271707e-82  3.3274238144968103e-82  3.2725279072862852e-82  3.2144024101283529e-82  3.1531046858711295e-82  3.0886952279678939e-82  3.0212376007773494e-82  2.9507983768332734e-82  2.8774470711454681e-82  2.8012560725968376e-82  2.7223005725042970e-82  2.6406584904140276e-82  2.5564103972042817e-82  2.4696394355716620e-82  2.3804312379793152e-82  2.2888738421480306e-82  2.1950576041736347e-82  2.0990751093564333e-82  2.0010210808307057e-82  1.9009922860844007e-82  1.7990874414613118e-82  1.6954071147399603e-82  1.5900536258853400e-82  1.4831309460714715e-82  1.3747445950744011e-82  1.2650015371369173e-82  1.1540100754077676e-82  1.0418797450595134e-82  9.2872120519055346e-83  8.1464612961793831e-83  6.9976709666880901e-83  5.8419747807917498e-83  4.6805132710969107e-83  3.5144326598887339e-83  2.3448837279478243e-83  1.1730206788686922e-83  0.0000000000000000e+00  </DataArray> 
</PointData> 
</Piece>
</UnstructuredGrid>
</VTKFile>