<?xml version="1.0"?>
<VTKFile type="UnstructuredGrid"  version="0.1"  >
<UnstructuredGrid>
<Piece  NumberOfPoints="101" NumberOfCells="100">
<Points>
<DataArray  type="Float64"  NumberOfComponents="3"  format="ascii">0 0 0  1e-07 0 0  2e-07 0 0  3e-07 0 0  4e-07 0 0  5e-07 0 0  6.000000000000001e-07 0 0  7.000000000000001e-07 0 0  8.000000000000001e-07 0 0  9.000000000000001e-07 0 0  1e-06 0 0  1.1e-06 0 0  1.2e-06 0 0  1.3e-06 0 0  1.4e-06 0 0  1.5e-06 0 0  1.6e-06 0 0  1.7e-06 0 0  1.8e-06 0 0  1.9e-06 0 0  2e-06 0 0  2.1e-06 0 0  2.2e-06 0 0  2.3e-06 0 0  2.4e-06 0 0  2.5e-06 0 0  2.600000000000001e-06 0 0  2.7e-06 0 0  2.8e-06 0 0  2.9e-06 0 0  3e-06 0 0  3.1e-06 0 0  3.2e-06 0 0  3.300000000000001e-06 0 0  3.4e-06 0 0  3.5e-06 0 0  3.6e-06 0 0  3.700000000000001e-06 0 0  3.8e-06 0 0  3.900000000000001e-06 0 0  4e-06 0 0  4.100000000000001e-06 0 0  4.2e-06 0 0  4.3e-06 0 0  4.4e-06 0 0  4.5e-06 0 0  4.6e-06 0 0  4.700000000000001e-06 0 0  4.800000000000001e-06 0 0  4.900000000000001e-06 0 0  5e-06 0 0  5.1e-06 0 0  5.200000000000001e-06 0 0  5.300000000000001e-06 0 0  5.4e-06 0 0  5.500000000000001e-06 0 0  5.600000000000001e-06 0 0  5.7e-06 0 0  5.8e-06 0 0  5.9e-06 0 0  6e-06 0 0  6.100000000000001e-06 0 0  6.2e-06 0 0  6.300000000000001e-06 0 0  6.400000000000001e-06 0 0  6.5e-06 0 0  6.600000000000001e-06 0 0  6.7e-06 0 0  6.8e-06 0 0  6.900000000000001e-06 0 0  7.000000000000001e-06 0 0  7.1e-06 0 0  7.200000000000001e-06 0 0  7.3e-06 0 0  7.400000000000001e-06 0 0  7.5e-06 0 0  7.6e-06 0 0  7.700000000000001e-06 0 0  7.800000000000002e-06 0 0  7.900000000000001e-06 0 0  8e-06 0 0  8.1e-06 0 0  8.200000000000001e-06 0 0  8.300000000000002e-06 0 0  8.400000000000001e-06 0 0  8.5e-06 0 0  8.600000000000001e-06 0 0  8.700000000000001e-06 0 0  8.8e-06 0 0  8.900000000000001e-06 0 0  9e-06 0 0  9.100000000000001e-06 0 0  9.2e-06 0 0  9.300000000000001e-06 0 0  9.400000000000001e-06 0 0  9.500000000000001e-06 0 0  9.600000000000001e-06 0 0  9.7e-06 0 0  9.800000000000001e-06 0 0  9.9e-06 0 0  1e-05 0 0  </DataArray>
</Points>
<Cells>
<DataArray  type="UInt32"  Name="connectivity"  format="ascii">0 1  1 2  2 3  3 4  4 5  5 6  6 7  7 8  8 9  9 10  10 11  11 12  12 13  13 14  14 15  15 16  16 17  17 18  18 19  19 20  20 21  21 22  22 23  23 24  24 25  25 26  26 27  27 28  28 29  29 30  30 31  31 32  32 33  33 34  34 35  35 36  36 37  37 38  38 39  39 40  40 41  41 42  42 43  43 44  44 45  45 46  46 47  47 48  48 49  49 50  50 51  51 52  52 53  53 54  54 55  55 56  56 57  57 58  58 59  59 60  60 61  61 62  62 63  63 64  64 65  65 66  66 67  67 68  68 69  69 70  70 71  71 72  72 73  73 74  74 75  75 76  76 77  77 78  78 79  79 80  80 81  81 82  82 83  83 84  84 85  85 86  86 87  87 88  88 89  89 90  90 91  91 92  92 93  93 94  94 95  95 96  96 97  97 98  98 99  99 100  </DataArray>
<DataArray  type="UInt32"  Name="offsets"  format="ascii">2 4 6 8 10 12 14 16 18 20 22 24 26 28 30 32 34 36 38 40 42 44 46 48 50 52 54 56 58 60 62 64 66 68 70 72 74 76 78 80 82 84 86 88 90 92 94 96 98 100 102 104 106 108 110 112 114 116 118 120 122 124 126 128 130 132 134 136 138 140 142 144 146 148 150 152 154 156 158 160 162 164 166 168 170 172 174 176 178 180 182 184 186 188 190 192 194 196 198 200 </DataArray>
<DataArray  type="UInt8"  Name="types"  format="ascii">3 3 3 3 3 3 3 3 3 3 3 3 3 3 3 3 3 3 3 3 3 3 3 3 3 3 3 3 3 3 3 3 3 3 3 3 3 3 3 3 3 3 3 3 3 3 3 3 3 3 3 3 3 3 3 3 3 3 3 3 3 3 3 3 3 3 3 3 3 3 3 3 3 3 3 3 3 3 3 3 3 3 3 3 3 3 3 3 3 3 3 3 3 3 3 3 3 3 3 3 </DataArray>
</Cells>
<PointData  Scalars="f_38"> 
<DataArray  type="Float64"  Name="f_38"  format="ascii">0.0000000000000000e+00  2.7277187956891447e+00  5.4523339177852801e+00  8.1707544504310352e+00  1.0879899613680806e+01  1.3576702437092143e+01  1.6258114454376972e+01  1.8921110263420811e+01  2.1562692043158560e+01  2.4179894001218194e+01  2.6769786744841920e+01  2.9329481564486898e+01  3.1856134620462182e+01  3.4346951023141798e+01  3.6799188797679342e+01  3.9210162724529447e+01  4.1577248047499005e+01  4.3897884041494265e+01  4.6169577432599709e+01  4.8389905663617057e+01  5.0556519998707692e+01  5.2667148461315094e+01  5.4719598600094926e+01  5.6711760078145744e+01  5.8641607081411159e+01  6.0507200542712035e+01  6.2306690178462787e+01  6.4038316335726108e+01  6.5700411647864271e+01  6.7291402497647837e+01  6.8809810287285103e+01  7.0254252515432086e+01  7.1623443661833477e+01  7.2916195880826265e+01  7.4131419505508177e+01  7.5268123364929750e+01  7.6325414917210281e+01  7.7302500202002264e+01  7.8198683616233637e+01  7.9013367517540772e+01  7.9746051660266744e+01  8.0396332469336173e+01  8.0963902157728640e+01  8.1448547693657304e+01  8.1850149623915470e+01  8.2168680760179427e+01  8.2404204735353488e+01  8.2556874437307812e+01  8.2626930327593286e+01  8.2614698652919600e+01  8.2520589557351329e+01  8.2345095103312460e+01  8.2088787209593619e+01  8.1752315514625423e+01  8.1336405173319889e+01  8.0841854595785620e+01  8.0269533136195633e+01  7.9620378740027817e+01  7.8895395557808541e+01  7.8095651533369406e+01  7.7222275974478507e+01  7.6276457113529915e+01  7.5259439665770543e+01  7.4172522392312317e+01  7.3017055674923284e+01  7.1794439109310460e+01  7.0506119123308508e+01  6.9153586626064467e+01  6.7738374693969931e+01  6.6262056298733469e+01  6.4726242082611734e+01  6.3132578185430802e+01  6.1482744127628273e+01  5.9778450753135900e+01  5.8021438235502224e+01  5.6213474150228713e+01  5.4356351615858884e+01  5.2451887505925427e+01  5.0501920733421059e+01  4.8508310609021919e+01  4.6472935273854986e+01  4.4397690207168928e+01  4.2284486808838750e+01  4.0135251056213505e+01  3.7951922234403270e+01  3.5736451738697326e+01  3.3490801947414027e+01  3.1216945163102274e+01  2.8916862619648910e+01  2.6592543552495929e+01  2.4245984328837825e+01  2.1879187634351126e+01  1.9494161712714121e+01  1.7092919653887193e+01  1.4677478726899567e+01  1.2249859752509421e+01  9.8120865115602758e+00  7.3661851812970696e+00  4.9141838101438555e+00  2.4581117234651475e+00  0.0000000000000000e+00  </DataArray> 
</PointData> 
</Piece>
</UnstructuredGrid>
</VTKFile>