<?xml version="1.0"?>
<VTKFile type="UnstructuredGrid"  version="0.1"  >
<UnstructuredGrid>
<Piece  NumberOfPoints="101" NumberOfCells="100">
<Points>
<DataArray  type="Float64"  NumberOfComponents="3"  format="ascii">0 0 0  1e-07 0 0  2e-07 0 0  3e-07 0 0  4e-07 0 0  5e-07 0 0  6.000000000000001e-07 0 0  7.000000000000001e-07 0 0  8.000000000000001e-07 0 0  9.000000000000001e-07 0 0  1e-06 0 0  1.1e-06 0 0  1.2e-06 0 0  1.3e-06 0 0  1.4e-06 0 0  1.5e-06 0 0  1.6e-06 0 0  1.7e-06 0 0  1.8e-06 0 0  1.9e-06 0 0  2e-06 0 0  2.1e-06 0 0  2.2e-06 0 0  2.3e-06 0 0  2.4e-06 0 0  2.5e-06 0 0  2.600000000000001e-06 0 0  2.7e-06 0 0  2.8e-06 0 0  2.9e-06 0 0  3e-06 0 0  3.1e-06 0 0  3.2e-06 0 0  3.300000000000001e-06 0 0  3.4e-06 0 0  3.5e-06 0 0  3.6e-06 0 0  3.700000000000001e-06 0 0  3.8e-06 0 0  3.900000000000001e-06 0 0  4e-06 0 0  4.100000000000001e-06 0 0  4.2e-06 0 0  4.3e-06 0 0  4.4e-06 0 0  4.5e-06 0 0  4.6e-06 0 0  4.700000000000001e-06 0 0  4.800000000000001e-06 0 0  4.900000000000001e-06 0 0  5e-06 0 0  5.1e-06 0 0  5.200000000000001e-06 0 0  5.300000000000001e-06 0 0  5.4e-06 0 0  5.500000000000001e-06 0 0  5.600000000000001e-06 0 0  5.7e-06 0 0  5.8e-06 0 0  5.9e-06 0 0  6e-06 0 0  6.100000000000001e-06 0 0  6.2e-06 0 0  6.300000000000001e-06 0 0  6.400000000000001e-06 0 0  6.5e-06 0 0  6.600000000000001e-06 0 0  6.7e-06 0 0  6.8e-06 0 0  6.900000000000001e-06 0 0  7.000000000000001e-06 0 0  7.1e-06 0 0  7.200000000000001e-06 0 0  7.3e-06 0 0  7.400000000000001e-06 0 0  7.5e-06 0 0  7.6e-06 0 0  7.700000000000001e-06 0 0  7.800000000000002e-06 0 0  7.900000000000001e-06 0 0  8e-06 0 0  8.1e-06 0 0  8.200000000000001e-06 0 0  8.300000000000002e-06 0 0  8.400000000000001e-06 0 0  8.5e-06 0 0  8.600000000000001e-06 0 0  8.700000000000001e-06 0 0  8.8e-06 0 0  8.900000000000001e-06 0 0  9e-06 0 0  9.100000000000001e-06 0 0  9.2e-06 0 0  9.300000000000001e-06 0 0  9.400000000000001e-06 0 0  9.500000000000001e-06 0 0  9.600000000000001e-06 0 0  9.7e-06 0 0  9.800000000000001e-06 0 0  9.9e-06 0 0  1e-05 0 0  </DataArray>
</Points>
<Cells>
<DataArray  type="UInt32"  Name="connectivity"  format="ascii">0 1  1 2  2 3  3 4  4 5  5 6  6 7  7 8  8 9  9 10  10 11  11 12  12 13  13 14  14 15  15 16  16 17  17 18  18 19  19 20  20 21  21 22  22 23  23 24  24 25  25 26  26 27  27 28  28 29  29 30  30 31  31 32  32 33  33 34  34 35  35 36  36 37  37 38  38 39  39 40  40 41  41 42  42 43  43 44  44 45  45 46  46 47  47 48  48 49  49 50  50 51  51 52  52 53  53 54  54 55  55 56  56 57  57 58  58 59  59 60  60 61  61 62  62 63  63 64  64 65  65 66  66 67  67 68  68 69  69 70  70 71  71 72  72 73  73 74  74 75  75 76  76 77  77 78  78 79  79 80  80 81  81 82  82 83  83 84  84 85  85 86  86 87  87 88  88 89  89 90  90 91  91 92  92 93  93 94  94 95  95 96  96 97  97 98  98 99  99 100  </DataArray>
<DataArray  type="UInt32"  Name="offsets"  format="ascii">2 4 6 8 10 12 14 16 18 20 22 24 26 28 30 32 34 36 38 40 42 44 46 48 50 52 54 56 58 60 62 64 66 68 70 72 74 76 78 80 82 84 86 88 90 92 94 96 98 100 102 104 106 108 110 112 114 116 118 120 122 124 126 128 130 132 134 136 138 140 142 144 146 148 150 152 154 156 158 160 162 164 166 168 170 172 174 176 178 180 182 184 186 188 190 192 194 196 198 200 </DataArray>
<DataArray  type="UInt8"  Name="types"  format="ascii">3 3 3 3 3 3 3 3 3 3 3 3 3 3 3 3 3 3 3 3 3 3 3 3 3 3 3 3 3 3 3 3 3 3 3 3 3 3 3 3 3 3 3 3 3 3 3 3 3 3 3 3 3 3 3 3 3 3 3 3 3 3 3 3 3 3 3 3 3 3 3 3 3 3 3 3 3 3 3 3 3 3 3 3 3 3 3 3 3 3 3 3 3 3 3 3 3 3 3 3 </DataArray>
</Cells>
<PointData  Scalars="f_44"> 
<DataArray  type="Float64"  Name="f_44"  format="ascii">0.0000000000000000e+00  6.6684663628929876e-12  1.3199608547046636e-11  1.9465540049928934e-11  2.5356034772646816e-11  3.0784570238227529e-11  3.5691646801546365e-11  4.0045315772268295e-11  4.3839266150732700e-11  4.7089099247766293e-11  4.9827536394821775e-11  5.2099275441210463e-11  5.3956081330134199e-11  5.5452516498853523e-11  5.6642532872904474e-11  5.7576989345193271e-11  5.8302042132693908e-11  5.8858283093630876e-11  5.9280467585846797e-11  5.9597669361369436e-11  5.9833715126677639e-11  6.0007776748697849e-11  6.0135027771949366e-11  6.0227298340086726e-11  6.0293686198224620e-11  6.0341100130813002e-11  6.0374725928125483e-11  6.0398414329724656e-11  6.0414996189505298e-11  6.0426533217274575e-11  6.0434513871788271e-11  6.0440003967717625e-11  6.0443760819332981e-11  6.0446318639637638e-11  6.0448051688891448e-11  6.0449220471916256e-11  6.0450005202867821e-11  6.0450529826807965e-11  6.0450879117549337e-11  6.0451110751836999e-11  6.0451263773264251e-11  6.0451364484460473e-11  6.0451430522214870e-11  6.0451473658385270e-11  6.0451501713424902e-11  6.0451519855764433e-11  6.0451531478388114e-11  6.0451538785398212e-11  6.0451543179766058e-11  6.0451545513976611e-11  6.0451546244273863e-11  6.0451545513973354e-11  6.0451543179759635e-11  6.0451538785388467e-11  6.0451531478374982e-11  6.0451519855747967e-11  6.0451501713404843e-11  6.0451473658361644e-11  6.0451430522187534e-11  6.0451364484429273e-11  6.0451263773229134e-11  6.0451110751797785e-11  6.0450879117505897e-11  6.0450529826760182e-11  6.0450005202815644e-11  6.0449220471859582e-11  6.0448051688830094e-11  6.0446318639571632e-11  6.0443760819262322e-11  6.0440003967642274e-11  6.0434513871708203e-11  6.0426533217189983e-11  6.0414996189416182e-11  6.0398414329631237e-11  6.0374725928027967e-11  6.0341100130711607e-11  6.0293686198119671e-11  6.0227298339978611e-11  6.0135027771838511e-11  6.0007776748584628e-11  5.9833715126562622e-11  5.9597669361253088e-11  5.9280467585729738e-11  5.8858283093513739e-11  5.8302042132577314e-11  5.7576989345077880e-11  5.6642532872791047e-11  5.5452516498742758e-11  5.3956081330026983e-11  5.2099275441107530e-11  4.9827536394724136e-11  4.7089099247674703e-11  4.3839266150648179e-11  4.0045315772191658e-11  3.5691646801478529e-11  3.0784570238169452e-11  2.5356034772599198e-11  1.9465540049892603e-11  1.3199608547022052e-11  6.6684663628806469e-12  0.0000000000000000e+00  </DataArray> 
</PointData> 
</Piece>
</UnstructuredGrid>
</VTKFile>