<?xml version="1.0"?>
<VTKFile type="UnstructuredGrid"  version="0.1"  >
<UnstructuredGrid>
<Piece  NumberOfPoints="101" NumberOfCells="100">
<Points>
<DataArray  type="Float64"  NumberOfComponents="3"  format="ascii">0 0 0  0.001 0 0  0.002 0 0  0.003 0 0  0.004 0 0  0.005 0 0  0.006000000000000001 0 0  0.007000000000000001 0 0  0.008 0 0  0.009000000000000001 0 0  0.01 0 0  0.011 0 0  0.012 0 0  0.013 0 0  0.014 0 0  0.015 0 0  0.016 0 0  0.017 0 0  0.018 0 0  0.019 0 0  0.02 0 0  0.021 0 0  0.022 0 0  0.023 0 0  0.024 0 0  0.025 0 0  0.026 0 0  0.027 0 0  0.028 0 0  0.029 0 0  0.03 0 0  0.031 0 0  0.032 0 0  0.033 0 0  0.034 0 0  0.035 0 0  0.036 0 0  0.03700000000000001 0 0  0.03800000000000001 0 0  0.03900000000000001 0 0  0.04 0 0  0.04100000000000001 0 0  0.042 0 0  0.043 0 0  0.044 0 0  0.045 0 0  0.04600000000000001 0 0  0.047 0 0  0.04800000000000001 0 0  0.049 0 0  0.05 0 0  0.051 0 0  0.052 0 0  0.05300000000000001 0 0  0.05400000000000001 0 0  0.055 0 0  0.05600000000000001 0 0  0.057 0 0  0.05800000000000001 0 0  0.059 0 0  0.06 0 0  0.06100000000000001 0 0  0.062 0 0  0.063 0 0  0.064 0 0  0.065 0 0  0.066 0 0  0.067 0 0  0.068 0 0  0.06900000000000001 0 0  0.07000000000000001 0 0  0.07100000000000001 0 0  0.07200000000000001 0 0  0.07300000000000001 0 0  0.07400000000000001 0 0  0.075 0 0  0.07600000000000001 0 0  0.077 0 0  0.07800000000000001 0 0  0.079 0 0  0.08 0 0  0.081 0 0  0.08200000000000002 0 0  0.083 0 0  0.08400000000000001 0 0  0.08500000000000001 0 0  0.08599999999999999 0 0  0.08700000000000001 0 0  0.08800000000000001 0 0  0.08900000000000001 0 0  0.09 0 0  0.091 0 0  0.09200000000000001 0 0  0.09300000000000001 0 0  0.094 0 0  0.095 0 0  0.09600000000000002 0 0  0.09700000000000002 0 0  0.098 0 0  0.099 0 0  0.1 0 0  </DataArray>
</Points>
<Cells>
<DataArray  type="UInt32"  Name="connectivity"  format="ascii">0 1  1 2  2 3  3 4  4 5  5 6  6 7  7 8  8 9  9 10  10 11  11 12  12 13  13 14  14 15  15 16  16 17  17 18  18 19  19 20  20 21  21 22  22 23  23 24  24 25  25 26  26 27  27 28  28 29  29 30  30 31  31 32  32 33  33 34  34 35  35 36  36 37  37 38  38 39  39 40  40 41  41 42  42 43  43 44  44 45  45 46  46 47  47 48  48 49  49 50  50 51  51 52  52 53  53 54  54 55  55 56  56 57  57 58  58 59  59 60  60 61  61 62  62 63  63 64  64 65  65 66  66 67  67 68  68 69  69 70  70 71  71 72  72 73  73 74  74 75  75 76  76 77  77 78  78 79  79 80  80 81  81 82  82 83  83 84  84 85  85 86  86 87  87 88  88 89  89 90  90 91  91 92  92 93  93 94  94 95  95 96  96 97  97 98  98 99  99 100  </DataArray>
<DataArray  type="UInt32"  Name="offsets"  format="ascii">2 4 6 8 10 12 14 16 18 20 22 24 26 28 30 32 34 36 38 40 42 44 46 48 50 52 54 56 58 60 62 64 66 68 70 72 74 76 78 80 82 84 86 88 90 92 94 96 98 100 102 104 106 108 110 112 114 116 118 120 122 124 126 128 130 132 134 136 138 140 142 144 146 148 150 152 154 156 158 160 162 164 166 168 170 172 174 176 178 180 182 184 186 188 190 192 194 196 198 200 </DataArray>
<DataArray  type="UInt8"  Name="types"  format="ascii">3 3 3 3 3 3 3 3 3 3 3 3 3 3 3 3 3 3 3 3 3 3 3 3 3 3 3 3 3 3 3 3 3 3 3 3 3 3 3 3 3 3 3 3 3 3 3 3 3 3 3 3 3 3 3 3 3 3 3 3 3 3 3 3 3 3 3 3 3 3 3 3 3 3 3 3 3 3 3 3 3 3 3 3 3 3 3 3 3 3 3 3 3 3 3 3 3 3 3 3 </DataArray>
</Cells>
<PointData  Scalars="f_14"> 
<DataArray  type="Float64"  Name="f_14"  format="ascii">3.5818718343123583e-15  4.2615828021311618e-15  6.5441467635097805e-15  1.1241621099356330e-14  2.0005540925457683e-14  3.5870895874800951e-14  6.4239763005034092e-14  1.1460051758593356e-13  2.0348969977402069e-13  3.5955185491549911e-13  6.3212676244653154e-13  1.1057358669035539e-12  1.9243779605793371e-12  3.3320394785462118e-12  5.7398467751246294e-12  9.8367283234159807e-12  1.6770700209681843e-11  2.8444077487669948e-11  4.7991322232489362e-11  8.0547843680666658e-11  1.3447937122214353e-10  2.2333575292447805e-10  3.6893684717484863e-10  6.0621608389639510e-10  9.9077504061725830e-10  1.6105917475859179e-09  2.6040505944958030e-09  4.1875280766251176e-09  6.6973245889843477e-09  1.0652984959286582e-08  1.6852285035215460e-08  2.6512768687575987e-08  4.1481226664910883e-08  6.4541621200840417e-08  9.9864610221641698e-08  1.5365922911224041e-07  2.3511101396818559e-07  3.5772289029104656e-07  5.4121799940593648e-07  8.1422036407992014e-07  1.2180036229557634e-06  1.8116944004341840e-06  2.6794403365657688e-06  3.9402091483655275e-06  5.7610806266714672e-06  8.3751347800431835e-06  1.2105332920631494e-05  1.7396140205312723e-05  2.4855052452289963e-05  3.5306669001192989e-05  4.9862495381722694e-05  7.0010257881694530e-05  9.7727153217324849e-05  1.3562211820719301e-04  1.8711285391627354e-04  2.5664393119629268e-04  3.4995278129948393e-04  4.7439066328456561e-04  6.3930571203701253e-04  8.5649480686803665e-04  1.1407301510715313e-03  1.5103650029591228e-03  1.9880208365430255e-03  2.6013552346447599e-03  3.3839059513640882e-03  4.3760017835316146e-03  5.6257251717727243e-03  7.1899048863128794e-03  9.1351098947664057e-03  1.1538607802833931e-02  1.4489243444471115e-02  1.8088185712912812e-02  2.2449484094597107e-02  2.7700371193955024e-02  3.3981244463665086e-02  4.1445260036889302e-02  5.0257474612698236e-02  6.0593478300239013e-02  7.2637472559779023e-02  8.6579763062055143e-02  1.0261365733524820e-01  1.2093178109449233e-01  1.4172185443908833e-01  1.6516199861400341e-01  1.9141567441254187e-01  2.2062638293439388e-01  2.5291228651373215e-01  2.8836093032229343e-01  3.2702426160287257e-01  3.6891415204878064e-01  4.1399862818048921e-01  4.6219900379316436e-01  5.1338808732177599e-01  5.6738960558571683e-01  6.2397894478555782e-01  6.8288526143105943e-01  7.4379496226428432e-01  8.0635649585520353e-01  8.7018634235188530e-01  9.3487603494901839e-01  1.0000000000000000e+00  </DataArray> 
</PointData> 
</Piece>
</UnstructuredGrid>
</VTKFile>