<?xml version="1.0"?>
<VTKFile type="UnstructuredGrid"  version="0.1"  >
<UnstructuredGrid>
<Piece  NumberOfPoints="101" NumberOfCells="100">
<Points>
<DataArray  type="Float64"  NumberOfComponents="3"  format="ascii">0 0 0  0.001 0 0  0.002 0 0  0.003 0 0  0.004 0 0  0.005 0 0  0.006000000000000001 0 0  0.007000000000000001 0 0  0.008 0 0  0.009000000000000001 0 0  0.01 0 0  0.011 0 0  0.012 0 0  0.013 0 0  0.014 0 0  0.015 0 0  0.016 0 0  0.017 0 0  0.018 0 0  0.019 0 0  0.02 0 0  0.021 0 0  0.022 0 0  0.023 0 0  0.024 0 0  0.025 0 0  0.026 0 0  0.027 0 0  0.028 0 0  0.029 0 0  0.03 0 0  0.031 0 0  0.032 0 0  0.033 0 0  0.034 0 0  0.035 0 0  0.036 0 0  0.03700000000000001 0 0  0.03800000000000001 0 0  0.03900000000000001 0 0  0.04 0 0  0.04100000000000001 0 0  0.042 0 0  0.043 0 0  0.044 0 0  0.045 0 0  0.04600000000000001 0 0  0.047 0 0  0.04800000000000001 0 0  0.049 0 0  0.05 0 0  0.051 0 0  0.052 0 0  0.05300000000000001 0 0  0.05400000000000001 0 0  0.055 0 0  0.05600000000000001 0 0  0.057 0 0  0.05800000000000001 0 0  0.059 0 0  0.06 0 0  0.06100000000000001 0 0  0.062 0 0  0.063 0 0  0.064 0 0  0.065 0 0  0.066 0 0  0.067 0 0  0.068 0 0  0.06900000000000001 0 0  0.07000000000000001 0 0  0.07100000000000001 0 0  0.07200000000000001 0 0  0.07300000000000001 0 0  0.07400000000000001 0 0  0.075 0 0  0.07600000000000001 0 0  0.077 0 0  0.07800000000000001 0 0  0.079 0 0  0.08 0 0  0.081 0 0  0.08200000000000002 0 0  0.083 0 0  0.08400000000000001 0 0  0.08500000000000001 0 0  0.08599999999999999 0 0  0.08700000000000001 0 0  0.08800000000000001 0 0  0.08900000000000001 0 0  0.09 0 0  0.091 0 0  0.09200000000000001 0 0  0.09300000000000001 0 0  0.094 0 0  0.095 0 0  0.09600000000000002 0 0  0.09700000000000002 0 0  0.098 0 0  0.099 0 0  0.1 0 0  </DataArray>
</Points>
<Cells>
<DataArray  type="UInt32"  Name="connectivity"  format="ascii">0 1  1 2  2 3  3 4  4 5  5 6  6 7  7 8  8 9  9 10  10 11  11 12  12 13  13 14  14 15  15 16  16 17  17 18  18 19  19 20  20 21  21 22  22 23  23 24  24 25  25 26  26 27  27 28  28 29  29 30  30 31  31 32  32 33  33 34  34 35  35 36  36 37  37 38  38 39  39 40  40 41  41 42  42 43  43 44  44 45  45 46  46 47  47 48  48 49  49 50  50 51  51 52  52 53  53 54  54 55  55 56  56 57  57 58  58 59  59 60  60 61  61 62  62 63  63 64  64 65  65 66  66 67  67 68  68 69  69 70  70 71  71 72  72 73  73 74  74 75  75 76  76 77  77 78  78 79  79 80  80 81  81 82  82 83  83 84  84 85  85 86  86 87  87 88  88 89  89 90  90 91  91 92  92 93  93 94  94 95  95 96  96 97  97 98  98 99  99 100  </DataArray>
<DataArray  type="UInt32"  Name="offsets"  format="ascii">2 4 6 8 10 12 14 16 18 20 22 24 26 28 30 32 34 36 38 40 42 44 46 48 50 52 54 56 58 60 62 64 66 68 70 72 74 76 78 80 82 84 86 88 90 92 94 96 98 100 102 104 106 108 110 112 114 116 118 120 122 124 126 128 130 132 134 136 138 140 142 144 146 148 150 152 154 156 158 160 162 164 166 168 170 172 174 176 178 180 182 184 186 188 190 192 194 196 198 200 </DataArray>
<DataArray  type="UInt8"  Name="types"  format="ascii">3 3 3 3 3 3 3 3 3 3 3 3 3 3 3 3 3 3 3 3 3 3 3 3 3 3 3 3 3 3 3 3 3 3 3 3 3 3 3 3 3 3 3 3 3 3 3 3 3 3 3 3 3 3 3 3 3 3 3 3 3 3 3 3 3 3 3 3 3 3 3 3 3 3 3 3 3 3 3 3 3 3 3 3 3 3 3 3 3 3 3 3 3 3 3 3 3 3 3 3 </DataArray>
</Cells>
<PointData  Scalars="f_14"> 
<DataArray  type="Float64"  Name="f_14"  format="ascii">5.6236201044098212e-04  5.6756856368248238e-04  5.8325812157645227e-04  6.0964089617902796e-04  6.4706896516474662e-04  6.9603885497226741e-04  7.5719515062878495e-04  8.3133512537607020e-04  9.1941438083485781e-04  1.0225534857484658e-03  1.1420455982794136e-03  1.2793650533370051e-03  1.4361768924371888e-03  1.6143473090922372e-03  1.8159549776575084e-03  2.0433032278940133e-03  2.2989330212155388e-03  2.5856366776637828e-03  2.9064722950908144e-03  3.2647787938323456e-03  3.6641915113471259e-03  4.1086582619085602e-03  4.6024557665091167e-03  5.1502063477343474e-03  5.7568947735534715e-03  6.4278851228438960e-03  7.1689375341185179e-03  7.9862246874720221e-03  8.8863478583351314e-03  9.8763523703660344e-03  1.0963742263871933e-02  1.2156493985708327e-02  1.3463068896826890e-02  1.4892424384723258e-02  1.6454023360167016e-02  1.8157841910980077e-02  2.0014374880468404e-02  2.2034639134611560e-02  2.4230174280475827e-02  2.6613040598738244e-02  2.9195813955878506e-02  3.1991577466691824e-02  3.5013909685459491e-02  3.8276869114531008e-02  4.1794974832339862e-02  4.5583183059094819e-02  4.9656859497623967e-02  5.4031747309132204e-02  5.8723930608970722e-02  6.3749793395858206e-02  6.9125973859273410e-02  7.4869314043818233e-02  8.0996804886080548e-02  8.7525526678681034e-02  9.4472585057522609e-02  1.0185504265146739e-01  1.0968984657840507e-01  1.1799375201755437e-01  1.2678324213444228e-01  1.3607444468185392e-01  1.4588304564666760e-01  1.5622420035834028e-01  1.6711244251936541e-01  1.7856159166071592e-01  1.9058465956554468e-01  2.0319375624168276e-01  2.1639999605717095e-01  2.3021340468265275e-01  2.4464282750940114e-01  2.5969584023156506e-01  2.7537866229543206e-01  2.9169607392671276e-01  3.0865133744868817e-01  3.2624612359923832e-01  3.4448044354305796e-01  3.6335258725660341e-01  3.8285906893744293e-01  4.0299458005668687e-01  4.2375195063319504e-01  4.4512211926140410e-01  4.6709411237126469e-01  4.8965503313917569e-01  5.1279006040350039e-01  5.3648245786770554e-01  5.6071359379902797e-01  5.8546297135150860e-01  6.1070826956000324e-01  6.3642539496716932e-01  6.6258854375929788e-01  6.8917027420012089e-01  7.1614158906523506e-01  7.4347202769454102e-01  7.7112976719698201e-01  7.9908173226183288e-01  8.2729371295470822e-01  8.5573048980521915e-01  8.8435596542761186e-01  9.1313330185653052e-01  9.4202506272795961e-01  9.7099335939100251e-01  1.0000000000000000e+00  </DataArray> 
</PointData> 
</Piece>
</UnstructuredGrid>
</VTKFile>