<?xml version="1.0"?>
<VTKFile type="UnstructuredGrid"  version="0.1"  >
<UnstructuredGrid>
<Piece  NumberOfPoints="101" NumberOfCells="100">
<Points>
<DataArray  type="Float64"  NumberOfComponents="3"  format="ascii">0 0 0  0.001 0 0  0.002 0 0  0.003 0 0  0.004 0 0  0.005 0 0  0.006000000000000001 0 0  0.007000000000000001 0 0  0.008 0 0  0.009000000000000001 0 0  0.01 0 0  0.011 0 0  0.012 0 0  0.013 0 0  0.014 0 0  0.015 0 0  0.016 0 0  0.017 0 0  0.018 0 0  0.019 0 0  0.02 0 0  0.021 0 0  0.022 0 0  0.023 0 0  0.024 0 0  0.025 0 0  0.026 0 0  0.027 0 0  0.028 0 0  0.029 0 0  0.03 0 0  0.031 0 0  0.032 0 0  0.033 0 0  0.034 0 0  0.035 0 0  0.036 0 0  0.03700000000000001 0 0  0.03800000000000001 0 0  0.03900000000000001 0 0  0.04 0 0  0.04100000000000001 0 0  0.042 0 0  0.043 0 0  0.044 0 0  0.045 0 0  0.04600000000000001 0 0  0.047 0 0  0.04800000000000001 0 0  0.049 0 0  0.05 0 0  0.051 0 0  0.052 0 0  0.05300000000000001 0 0  0.05400000000000001 0 0  0.055 0 0  0.05600000000000001 0 0  0.057 0 0  0.05800000000000001 0 0  0.059 0 0  0.06 0 0  0.06100000000000001 0 0  0.062 0 0  0.063 0 0  0.064 0 0  0.065 0 0  0.066 0 0  0.067 0 0  0.068 0 0  0.06900000000000001 0 0  0.07000000000000001 0 0  0.07100000000000001 0 0  0.07200000000000001 0 0  0.07300000000000001 0 0  0.07400000000000001 0 0  0.075 0 0  0.07600000000000001 0 0  0.077 0 0  0.07800000000000001 0 0  0.079 0 0  0.08 0 0  0.081 0 0  0.08200000000000002 0 0  0.083 0 0  0.08400000000000001 0 0  0.08500000000000001 0 0  0.08599999999999999 0 0  0.08700000000000001 0 0  0.08800000000000001 0 0  0.08900000000000001 0 0  0.09 0 0  0.091 0 0  0.09200000000000001 0 0  0.09300000000000001 0 0  0.094 0 0  0.095 0 0  0.09600000000000002 0 0  0.09700000000000002 0 0  0.098 0 0  0.099 0 0  0.1 0 0  </DataArray>
</Points>
<Cells>
<DataArray  type="UInt32"  Name="connectivity"  format="ascii">0 1  1 2  2 3  3 4  4 5  5 6  6 7  7 8  8 9  9 10  10 11  11 12  12 13  13 14  14 15  15 16  16 17  17 18  18 19  19 20  20 21  21 22  22 23  23 24  24 25  25 26  26 27  27 28  28 29  29 30  30 31  31 32  32 33  33 34  34 35  35 36  36 37  37 38  38 39  39 40  40 41  41 42  42 43  43 44  44 45  45 46  46 47  47 48  48 49  49 50  50 51  51 52  52 53  53 54  54 55  55 56  56 57  57 58  58 59  59 60  60 61  61 62  62 63  63 64  64 65  65 66  66 67  67 68  68 69  69 70  70 71  71 72  72 73  73 74  74 75  75 76  76 77  77 78  78 79  79 80  80 81  81 82  82 83  83 84  84 85  85 86  86 87  87 88  88 89  89 90  90 91  91 92  92 93  93 94  94 95  95 96  96 97  97 98  98 99  99 100  </DataArray>
<DataArray  type="UInt32"  Name="offsets"  format="ascii">2 4 6 8 10 12 14 16 18 20 22 24 26 28 30 32 34 36 38 40 42 44 46 48 50 52 54 56 58 60 62 64 66 68 70 72 74 76 78 80 82 84 86 88 90 92 94 96 98 100 102 104 106 108 110 112 114 116 118 120 122 124 126 128 130 132 134 136 138 140 142 144 146 148 150 152 154 156 158 160 162 164 166 168 170 172 174 176 178 180 182 184 186 188 190 192 194 196 198 200 </DataArray>
<DataArray  type="UInt8"  Name="types"  format="ascii">3 3 3 3 3 3 3 3 3 3 3 3 3 3 3 3 3 3 3 3 3 3 3 3 3 3 3 3 3 3 3 3 3 3 3 3 3 3 3 3 3 3 3 3 3 3 3 3 3 3 3 3 3 3 3 3 3 3 3 3 3 3 3 3 3 3 3 3 3 3 3 3 3 3 3 3 3 3 3 3 3 3 3 3 3 3 3 3 3 3 3 3 3 3 3 3 3 3 3 3 </DataArray>
</Cells>
<PointData  Scalars="f_14"> 
<DataArray  type="Float64"  Name="f_14"  format="ascii">2.1911233188892124e-08  2.3091708668667653e-08  2.6745757797638365e-08  3.3220506967972330e-08  4.3125988546367890e-08  5.7384601131233411e-08  7.7304925928931619e-08  1.0468474699679263e-07  1.4194991122851850e-07  1.9233777033166213e-07  2.6013645995980677e-07  3.5099428919225513e-07  4.7231714713493696e-07  6.3377620617809636e-07  8.4795345123594483e-07  1.1311588437545782e-06  1.5044604058444999e-06  1.9949773650473448e-06  2.6374969277865210e-06  3.4764874527314709e-06  4.5685949825340903e-06  5.9857264712742694e-06  7.8188418143776004e-06  1.0182598127859658e-05  1.3221013783353893e-05  1.7114346586983301e-05  2.2087410232071143e-05  2.8419585711593711e-05  3.6456819591947733e-05  4.6625938637439396e-05  5.9451649786484226e-05  7.5576635277915325e-05  9.5785193952626548e-05  1.2103092030906746e-04  1.5246895139563879e-04  1.9149334640987636e-04  2.3978019296553755e-04  2.9933705509077385e-04  3.7255938852874342e-04  4.6229454592845758e-04  5.7191397488193111e-04  7.0539417212206815e-04  8.6740689405136705e-04  1.0634190335979893e-03  1.2998024527532460e-03  1.5839539058259725e-03  1.9244249976471629e-03  2.3310618914544209e-03  2.8151542115580014e-03  3.3895922757282079e-03  4.0690314423756594e-03  4.8700619703022623e-03  5.8113823680254351e-03  6.9139737612018163e-03  8.2012723382619470e-03  9.6993364558443772e-03  1.1437004508908414e-02  1.3446039209467341e-02  1.5761253488569559e-02  1.8420612855955702e-02  2.1465308739531563e-02  2.4939797102039581e-02  2.8891796514987664e-02  3.3372239879499693e-02  3.8435174138637597e-02  4.4137602642300273e-02  5.0539265317576028e-02  5.7702352474269650e-02  6.5691148942534763e-02  7.4571606297071297e-02  8.4410842164123159e-02  9.5276567020896333e-02  1.0723644046246228e-01  1.2035736060213006e-01  1.3470469205416913e-01  1.5034143978265921e-01  1.6732737794136621e-01  1.8571814462632569e-01  2.0556431516123791e-01  2.2691046807977244e-01  2.4979425930233684e-01  2.7424552107321576e-01  3.0028540297664563e-01  3.2792557274237966e-01  3.5716749454562308e-01  3.8800180207539248e-01  4.2040778277330004e-01  4.5435298832781595e-01  4.8979298475715644e-01  5.2667125325089970e-01  5.6491925040385582e-01  6.0445663361674296e-01  6.4519165431995606e-01  6.8702171837312243e-01  7.2983410958656159e-01  7.7350686888973641e-01  8.1790981832812992e-01  8.6290571589583287e-01  9.0835152429580202e-01  9.5409977414678271e-01  1.0000000000000000e+00  </DataArray> 
</PointData> 
</Piece>
</UnstructuredGrid>
</VTKFile>