<?xml version="1.0"?>
<VTKFile type="UnstructuredGrid"  version="0.1"  >
<UnstructuredGrid>
<Piece  NumberOfPoints="101" NumberOfCells="100">
<Points>
<DataArray  type="Float64"  NumberOfComponents="3"  format="ascii">0 0 0  0.001 0 0  0.002 0 0  0.003 0 0  0.004 0 0  0.005 0 0  0.006000000000000001 0 0  0.007000000000000001 0 0  0.008 0 0  0.009000000000000001 0 0  0.01 0 0  0.011 0 0  0.012 0 0  0.013 0 0  0.014 0 0  0.015 0 0  0.016 0 0  0.017 0 0  0.018 0 0  0.019 0 0  0.02 0 0  0.021 0 0  0.022 0 0  0.023 0 0  0.024 0 0  0.025 0 0  0.026 0 0  0.027 0 0  0.028 0 0  0.029 0 0  0.03 0 0  0.031 0 0  0.032 0 0  0.033 0 0  0.034 0 0  0.035 0 0  0.036 0 0  0.03700000000000001 0 0  0.03800000000000001 0 0  0.03900000000000001 0 0  0.04 0 0  0.04100000000000001 0 0  0.042 0 0  0.043 0 0  0.044 0 0  0.045 0 0  0.04600000000000001 0 0  0.047 0 0  0.04800000000000001 0 0  0.049 0 0  0.05 0 0  0.051 0 0  0.052 0 0  0.05300000000000001 0 0  0.05400000000000001 0 0  0.055 0 0  0.05600000000000001 0 0  0.057 0 0  0.05800000000000001 0 0  0.059 0 0  0.06 0 0  0.06100000000000001 0 0  0.062 0 0  0.063 0 0  0.064 0 0  0.065 0 0  0.066 0 0  0.067 0 0  0.068 0 0  0.06900000000000001 0 0  0.07000000000000001 0 0  0.07100000000000001 0 0  0.07200000000000001 0 0  0.07300000000000001 0 0  0.07400000000000001 0 0  0.075 0 0  0.07600000000000001 0 0  0.077 0 0  0.07800000000000001 0 0  0.079 0 0  0.08 0 0  0.081 0 0  0.08200000000000002 0 0  0.083 0 0  0.08400000000000001 0 0  0.08500000000000001 0 0  0.08599999999999999 0 0  0.08700000000000001 0 0  0.08800000000000001 0 0  0.08900000000000001 0 0  0.09 0 0  0.091 0 0  0.09200000000000001 0 0  0.09300000000000001 0 0  0.094 0 0  0.095 0 0  0.09600000000000002 0 0  0.09700000000000002 0 0  0.098 0 0  0.099 0 0  0.1 0 0  </DataArray>
</Points>
<Cells>
<DataArray  type="UInt32"  Name="connectivity"  format="ascii">0 1  1 2  2 3  3 4  4 5  5 6  6 7  7 8  8 9  9 10  10 11  11 12  12 13  13 14  14 15  15 16  16 17  17 18  18 19  19 20  20 21  21 22  22 23  23 24  24 25  25 26  26 27  27 28  28 29  29 30  30 31  31 32  32 33  33 34  34 35  35 36  36 37  37 38  38 39  39 40  40 41  41 42  42 43  43 44  44 45  45 46  46 47  47 48  48 49  49 50  50 51  51 52  52 53  53 54  54 55  55 56  56 57  57 58  58 59  59 60  60 61  61 62  62 63  63 64  64 65  65 66  66 67  67 68  68 69  69 70  70 71  71 72  72 73  73 74  74 75  75 76  76 77  77 78  78 79  79 80  80 81  81 82  82 83  83 84  84 85  85 86  86 87  87 88  88 89  89 90  90 91  91 92  92 93  93 94  94 95  95 96  96 97  97 98  98 99  99 100  </DataArray>
<DataArray  type="UInt32"  Name="offsets"  format="ascii">2 4 6 8 10 12 14 16 18 20 22 24 26 28 30 32 34 36 38 40 42 44 46 48 50 52 54 56 58 60 62 64 66 68 70 72 74 76 78 80 82 84 86 88 90 92 94 96 98 100 102 104 106 108 110 112 114 116 118 120 122 124 126 128 130 132 134 136 138 140 142 144 146 148 150 152 154 156 158 160 162 164 166 168 170 172 174 176 178 180 182 184 186 188 190 192 194 196 198 200 </DataArray>
<DataArray  type="UInt8"  Name="types"  format="ascii">3 3 3 3 3 3 3 3 3 3 3 3 3 3 3 3 3 3 3 3 3 3 3 3 3 3 3 3 3 3 3 3 3 3 3 3 3 3 3 3 3 3 3 3 3 3 3 3 3 3 3 3 3 3 3 3 3 3 3 3 3 3 3 3 3 3 3 3 3 3 3 3 3 3 3 3 3 3 3 3 3 3 3 3 3 3 3 3 3 3 3 3 3 3 3 3 3 3 3 3 </DataArray>
</Cells>
<PointData  Scalars="f_14"> 
<DataArray  type="Float64"  Name="f_14"  format="ascii">4.9128477371867343e-21  6.6686135010807829e-21  1.3145292518235528e-20  2.8771591816823281e-20  6.4104881472970305e-20  1.4267947271152133e-19  3.1604474886895210e-19  6.9617983138699266e-19  1.5247505846731857e-18  3.3200700396245824e-18  7.1869128106872476e-18  1.5465411259940272e-17  3.3081259325683998e-17  7.0336622190152278e-17  1.4864053285706794e-16  3.1219542043878979e-16  6.5166814867728224e-16  1.3518055510057933e-15  2.7865491546363083e-15  5.7076962490910902e-15  1.1616451844643226e-14  2.3489913172447546e-14  4.7191231679119453e-14  9.4186761274552622e-14  1.8674272234740735e-13  3.6778953375444932e-13  7.1950442039872075e-13  1.3980494423733959e-12  2.6980071479590511e-12  5.1709662358688434e-12  9.8420349136346234e-12  1.8601984138736067e-11  3.4911733838398019e-11  6.5057594759560924e-11  1.2036930154642807e-10  2.2110645290447381e-10  4.0321056714779450e-10  7.2993497584868495e-10  1.3117023777161218e-09  2.3397125843788509e-09  4.1423152041513882e-09  7.2787149941671859e-09  1.2693310824548671e-08  2.1967550191768190e-08  3.7727058667578360e-08  6.4293519757199196e-08  1.0871837914810883e-07  1.8240599116713643e-07  3.0363702998126571e-07  5.0145196402777147e-07  8.2156646464735721e-07  1.3352881613114564e-06  2.1528153138676357e-06  3.4428571126200823e-06  5.4612629191048250e-06  8.5923294129569052e-06  1.3407718665671729e-05  2.0749513532011769e-05  3.1845898294749509e-05  4.8470303504990219e-05  7.3157585356899919e-05  1.0949386620693024e-04  1.6249992310992230e-04  2.3913126865550991e-04  3.4892100997714989e-04  5.0479376186806670e-04  7.2407976122881683e-04  1.0297571879786293e-03  1.4519467429852221e-03  2.0296749100740057e-03  2.8129101988821799e-03  3.8648593154845664e-03  5.2644871862165292e-03  7.1091960327539210e-03  9.5175648127914531e-03  1.2632012588160118e-02  1.6621209903574331e-02  2.1682024101852389e-02  2.8040751569729839e-02  3.5953366791433239e-02  4.5704509746485780e-02  5.7604944503632183e-02  7.1987257057416973e-02  8.9199622441291412e-02  1.0959756087220296e-01  1.3353371851885301e-01  1.6134584585161443e-01  1.9334329772764361e-01  2.2979253378793943e-01  2.7090224249055184e-01  3.1680883296441453e-01  3.6756312164854382e-01  4.2311907274910610e-01  4.8332542342157991e-01  5.4792093137892828e-01  6.1653382512819799e-01  6.8868582225654851e-01  7.6380082222661894e-01  8.4121809534990566e-01  9.2020950105645960e-01  1.0000000000000000e+00  </DataArray> 
</PointData> 
</Piece>
</UnstructuredGrid>
</VTKFile>