<?xml version="1.0"?>
<VTKFile type="UnstructuredGrid"  version="0.1"  >
<UnstructuredGrid>
<Piece  NumberOfPoints="101" NumberOfCells="100">
<Points>
<DataArray  type="Float64"  NumberOfComponents="3"  format="ascii">0 0 0  0.001 0 0  0.002 0 0  0.003 0 0  0.004 0 0  0.005 0 0  0.006000000000000001 0 0  0.007000000000000001 0 0  0.008 0 0  0.009000000000000001 0 0  0.01 0 0  0.011 0 0  0.012 0 0  0.013 0 0  0.014 0 0  0.015 0 0  0.016 0 0  0.017 0 0  0.018 0 0  0.019 0 0  0.02 0 0  0.021 0 0  0.022 0 0  0.023 0 0  0.024 0 0  0.025 0 0  0.026 0 0  0.027 0 0  0.028 0 0  0.029 0 0  0.03 0 0  0.031 0 0  0.032 0 0  0.033 0 0  0.034 0 0  0.035 0 0  0.036 0 0  0.03700000000000001 0 0  0.03800000000000001 0 0  0.03900000000000001 0 0  0.04 0 0  0.04100000000000001 0 0  0.042 0 0  0.043 0 0  0.044 0 0  0.045 0 0  0.04600000000000001 0 0  0.047 0 0  0.04800000000000001 0 0  0.049 0 0  0.05 0 0  0.051 0 0  0.052 0 0  0.05300000000000001 0 0  0.05400000000000001 0 0  0.055 0 0  0.05600000000000001 0 0  0.057 0 0  0.05800000000000001 0 0  0.059 0 0  0.06 0 0  0.06100000000000001 0 0  0.062 0 0  0.063 0 0  0.064 0 0  0.065 0 0  0.066 0 0  0.067 0 0  0.068 0 0  0.06900000000000001 0 0  0.07000000000000001 0 0  0.07100000000000001 0 0  0.07200000000000001 0 0  0.07300000000000001 0 0  0.07400000000000001 0 0  0.075 0 0  0.07600000000000001 0 0  0.077 0 0  0.07800000000000001 0 0  0.079 0 0  0.08 0 0  0.081 0 0  0.08200000000000002 0 0  0.083 0 0  0.08400000000000001 0 0  0.08500000000000001 0 0  0.08599999999999999 0 0  0.08700000000000001 0 0  0.08800000000000001 0 0  0.08900000000000001 0 0  0.09 0 0  0.091 0 0  0.09200000000000001 0 0  0.09300000000000001 0 0  0.094 0 0  0.095 0 0  0.09600000000000002 0 0  0.09700000000000002 0 0  0.098 0 0  0.099 0 0  0.1 0 0  </DataArray>
</Points>
<Cells>
<DataArray  type="UInt32"  Name="connectivity"  format="ascii">0 1  1 2  2 3  3 4  4 5  5 6  6 7  7 8  8 9  9 10  10 11  11 12  12 13  13 14  14 15  15 16  16 17  17 18  18 19  19 20  20 21  21 22  22 23  23 24  24 25  25 26  26 27  27 28  28 29  29 30  30 31  31 32  32 33  33 34  34 35  35 36  36 37  37 38  38 39  39 40  40 41  41 42  42 43  43 44  44 45  45 46  46 47  47 48  48 49  49 50  50 51  51 52  52 53  53 54  54 55  55 56  56 57  57 58  58 59  59 60  60 61  61 62  62 63  63 64  64 65  65 66  66 67  67 68  68 69  69 70  70 71  71 72  72 73  73 74  74 75  75 76  76 77  77 78  78 79  79 80  80 81  81 82  82 83  83 84  84 85  85 86  86 87  87 88  88 89  89 90  90 91  91 92  92 93  93 94  94 95  95 96  96 97  97 98  98 99  99 100  </DataArray>
<DataArray  type="UInt32"  Name="offsets"  format="ascii">2 4 6 8 10 12 14 16 18 20 22 24 26 28 30 32 34 36 38 40 42 44 46 48 50 52 54 56 58 60 62 64 66 68 70 72 74 76 78 80 82 84 86 88 90 92 94 96 98 100 102 104 106 108 110 112 114 116 118 120 122 124 126 128 130 132 134 136 138 140 142 144 146 148 150 152 154 156 158 160 162 164 166 168 170 172 174 176 178 180 182 184 186 188 190 192 194 196 198 200 </DataArray>
<DataArray  type="UInt8"  Name="types"  format="ascii">3 3 3 3 3 3 3 3 3 3 3 3 3 3 3 3 3 3 3 3 3 3 3 3 3 3 3 3 3 3 3 3 3 3 3 3 3 3 3 3 3 3 3 3 3 3 3 3 3 3 3 3 3 3 3 3 3 3 3 3 3 3 3 3 3 3 3 3 3 3 3 3 3 3 3 3 3 3 3 3 3 3 3 3 3 3 3 3 3 3 3 3 3 3 3 3 3 3 3 3 </DataArray>
</Cells>
<PointData  Scalars="f_14"> 
<DataArray  type="Float64"  Name="f_14"  format="ascii">1.8713234795957205e-05  1.9088427140340270e-05  2.0226207042177225e-05  2.2163476866554770e-05  2.4962723817874008e-05  2.8713509054488454e-05  3.3534580854622485e-05  3.9576640150635830e-05  4.7025794702376881e-05  5.6107746012780674e-05  6.7092760752667432e-05  8.0301485897643805e-05  9.6111673915148758e-05  1.1496589108571874e-04  1.3738028829442586e-04  1.6395451926326033e-04  1.9538289607144764e-04  2.3246687576774437e-04  2.7612897473716630e-04  3.2742820904652819e-04  3.8757715904365943e-04  4.5796075479393231e-04  5.4015687526177145e-04  6.3595884823165066e-04  7.4739992955493351e-04  8.7677982914761466e-04  1.0266933369968507e-03  1.2000610850204409e-03  1.4001624597420308e-03  1.6306706562023261e-03  1.8956898351662542e-03  2.1997943133971283e-03  2.5480696804965511e-03  2.9461556955644105e-03  3.4002907728038754e-03  3.9173578173550619e-03  4.5049311213562274e-03  5.1713239758745854e-03  5.9256365974028882e-03  6.7778039086816271e-03  7.7386426533994001e-03  8.8198972636866213e-03  1.0034283839211726e-02  1.1395531538193221e-02  1.2918420624941133e-02  1.4618816366925830e-02  1.6513697928209017e-02  1.8621181366796767e-02  2.0960535812570489e-02  2.3552191881411885e-02  2.6417741371456620e-02  2.9579927290526234e-02  3.3062623281072817e-02  3.6890801541672423e-02  4.1090488393324492e-02  4.5688706705459374e-02  5.0713404481301162e-02  5.6193369005482309e-02  6.2158126078666540e-02  6.8637824004162726e-02  7.5663102149521932e-02  8.3264944080900044e-02  9.1474515458173936e-02  1.0032298708261587e-01  1.0984134370416380e-01  1.2006017941938964e-01  1.3100948072118140e-01  1.4271839849362047e-01  1.5521501047692635e-01  1.6852607595379740e-01  1.8267678462593276e-01  1.9769050185379902e-01  2.1358851261957545e-01  2.3038976673848285e-01  2.4811062798330702e-01  2.6676462989702354e-01  2.8636224114546832e-01  3.0691064330283063e-01  3.2841352396474432e-01  3.5087088804475819e-01  3.7427889002862258e-01  3.9862968983626174e-01  4.2391133477363024e-01  4.5010766984654138e-01  4.7719827845768770e-01  5.0515845521874980e-01  5.3395921228498600e-01  5.6356732026386291e-01  5.9394538436681898e-01  6.2505195606945851e-01  6.5684168012609223e-01  6.8926547635597546e-01  7.2227075518737627e-01  7.5580166551862260e-01  7.8979937303943493e-01  8.2420236675799241e-01  8.5894679110602679e-01  8.9396680065209155e-01  9.2919493414791243e-01  9.6456250436969082e-01  1.0000000000000000e+00  </DataArray> 
</PointData> 
</Piece>
</UnstructuredGrid>
</VTKFile>