<?xml version="1.0"?>
<VTKFile type="UnstructuredGrid"  version="0.1"  >
<UnstructuredGrid>
<Piece  NumberOfPoints="101" NumberOfCells="100">
<Points>
<DataArray  type="Float64"  NumberOfComponents="3"  format="ascii">0 0 0  0.001 0 0  0.002 0 0  0.003 0 0  0.004 0 0  0.005 0 0  0.006000000000000001 0 0  0.007000000000000001 0 0  0.008 0 0  0.009000000000000001 0 0  0.01 0 0  0.011 0 0  0.012 0 0  0.013 0 0  0.014 0 0  0.015 0 0  0.016 0 0  0.017 0 0  0.018 0 0  0.019 0 0  0.02 0 0  0.021 0 0  0.022 0 0  0.023 0 0  0.024 0 0  0.025 0 0  0.026 0 0  0.027 0 0  0.028 0 0  0.029 0 0  0.03 0 0  0.031 0 0  0.032 0 0  0.033 0 0  0.034 0 0  0.035 0 0  0.036 0 0  0.03700000000000001 0 0  0.03800000000000001 0 0  0.03900000000000001 0 0  0.04 0 0  0.04100000000000001 0 0  0.042 0 0  0.043 0 0  0.044 0 0  0.045 0 0  0.04600000000000001 0 0  0.047 0 0  0.04800000000000001 0 0  0.049 0 0  0.05 0 0  0.051 0 0  0.052 0 0  0.05300000000000001 0 0  0.05400000000000001 0 0  0.055 0 0  0.05600000000000001 0 0  0.057 0 0  0.05800000000000001 0 0  0.059 0 0  0.06 0 0  0.06100000000000001 0 0  0.062 0 0  0.063 0 0  0.064 0 0  0.065 0 0  0.066 0 0  0.067 0 0  0.068 0 0  0.06900000000000001 0 0  0.07000000000000001 0 0  0.07100000000000001 0 0  0.07200000000000001 0 0  0.07300000000000001 0 0  0.07400000000000001 0 0  0.075 0 0  0.07600000000000001 0 0  0.077 0 0  0.07800000000000001 0 0  0.079 0 0  0.08 0 0  0.081 0 0  0.08200000000000002 0 0  0.083 0 0  0.08400000000000001 0 0  0.08500000000000001 0 0  0.08599999999999999 0 0  0.08700000000000001 0 0  0.08800000000000001 0 0  0.08900000000000001 0 0  0.09 0 0  0.091 0 0  0.09200000000000001 0 0  0.09300000000000001 0 0  0.094 0 0  0.095 0 0  0.09600000000000002 0 0  0.09700000000000002 0 0  0.098 0 0  0.099 0 0  0.1 0 0  </DataArray>
</Points>
<Cells>
<DataArray  type="UInt32"  Name="connectivity"  format="ascii">0 1  1 2  2 3  3 4  4 5  5 6  6 7  7 8  8 9  9 10  10 11  11 12  12 13  13 14  14 15  15 16  16 17  17 18  18 19  19 20  20 21  21 22  22 23  23 24  24 25  25 26  26 27  27 28  28 29  29 30  30 31  31 32  32 33  33 34  34 35  35 36  36 37  37 38  38 39  39 40  40 41  41 42  42 43  43 44  44 45  45 46  46 47  47 48  48 49  49 50  50 51  51 52  52 53  53 54  54 55  55 56  56 57  57 58  58 59  59 60  60 61  61 62  62 63  63 64  64 65  65 66  66 67  67 68  68 69  69 70  70 71  71 72  72 73  73 74  74 75  75 76  76 77  77 78  78 79  79 80  80 81  81 82  82 83  83 84  84 85  85 86  86 87  87 88  88 89  89 90  90 91  91 92  92 93  93 94  94 95  95 96  96 97  97 98  98 99  99 100  </DataArray>
<DataArray  type="UInt32"  Name="offsets"  format="ascii">2 4 6 8 10 12 14 16 18 20 22 24 26 28 30 32 34 36 38 40 42 44 46 48 50 52 54 56 58 60 62 64 66 68 70 72 74 76 78 80 82 84 86 88 90 92 94 96 98 100 102 104 106 108 110 112 114 116 118 120 122 124 126 128 130 132 134 136 138 140 142 144 146 148 150 152 154 156 158 160 162 164 166 168 170 172 174 176 178 180 182 184 186 188 190 192 194 196 198 200 </DataArray>
<DataArray  type="UInt8"  Name="types"  format="ascii">3 3 3 3 3 3 3 3 3 3 3 3 3 3 3 3 3 3 3 3 3 3 3 3 3 3 3 3 3 3 3 3 3 3 3 3 3 3 3 3 3 3 3 3 3 3 3 3 3 3 3 3 3 3 3 3 3 3 3 3 3 3 3 3 3 3 3 3 3 3 3 3 3 3 3 3 3 3 3 3 3 3 3 3 3 3 3 3 3 3 3 3 3 3 3 3 3 3 3 3 </DataArray>
</Cells>
<PointData  Scalars="f_14"> 
<DataArray  type="Float64"  Name="f_14"  format="ascii">5.9227128339580403e-09  6.2916293823022668e-09  7.4394578744628575e-09  9.4934306774116209e-09  1.2679248740905432e-08  1.7342719876786215e-08  2.3982465221035572e-08  3.3296290612991427e-08  4.6244833087903919e-08  6.4137325445593767e-08  8.8745840277119105e-08  1.2245625609580024e-07  1.6846652253180012e-07  2.3104569431592896e-07  3.1587077777077827e-07  4.3046283094327262e-07  5.8474914281423811e-07  7.9178487440548998e-07  1.0686754849215378e-06  1.4377508229331831e-06  1.9280531924813424e-06  2.5772152837763588e-06  3.4338198811749014e-06  4.5603520306766737e-06  6.0368761697792771e-06  7.9655958877951340e-06  1.0476482761953256e-05  1.3734193325301966e-05  1.7946529818702010e-05  2.3374741015633684e-05  3.0346004009592240e-05  3.9268476176921635e-05  5.0649358122620171e-05  6.5116462580884341e-05  8.3443839976555549e-05  1.0658206731567535e-04  1.3569386153350693e-04  1.7219572923094078e-04  2.1780640926199582e-04  2.7460289980577100e-04  3.4508488379402923e-04  4.3224837183364372e-04  5.3966936559967542e-04  6.7159830226306639e-04  8.3306596678726669e-04  1.0300014486978946e-03  1.2693625680803096e-03  1.5592789972554237e-03  1.9092080555269384e-03  2.3301028511159274e-03  2.8345920845881532e-03  3.4371704109172310e-03  4.1543977838467147e-03  5.0051056796475441e-03  6.0106075234738366e-03  7.1949100288703381e-03  8.5849215211843619e-03  1.0210652663456922e-02  1.2105404356781539e-02  1.4305936967176800e-02  1.6852614461608618e-02  1.9789516543201841e-02  2.3164511487992544e-02  2.7029282131897484e-02  3.1439297366089074e-02  3.6453721599794028e-02  4.2135254967509313e-02  4.8549897614961084e-02  5.5766632212001975e-02  6.3857019921844962e-02  7.2894706407659687e-02  8.2954836073845184e-02  9.4113374604678321e-02  1.0644634195149832e-01  1.2002896019434882e-01  1.3493472311764659e-01  1.5123439683448844e-01  1.6899496330412753e-01  1.8827852103799009e-01  2.0914115960185259e-01  2.3163182661307902e-01  2.5579120771933817e-01  2.8165064144927709e-01  3.0923109177240704e-01  3.3854220163068255e-01  3.6958145055599750e-01  4.0233343872966987e-01  4.3676931845320993e-01  4.7284639198537176e-01  5.1050789208069713e-01  5.4968295838278936e-01  5.9028681914588210e-01  6.3222118366488722e-01  6.7537484638874268e-01  7.1962449909077719e-01  7.6483574280023803e-01  8.1086428659506138e-01  8.5755731595344487e-01  9.0475500929396191e-01  9.5229217772628283e-01  1.0000000000000000e+00  </DataArray> 
</PointData> 
</Piece>
</UnstructuredGrid>
</VTKFile>