<?xml version="1.0"?>
<VTKFile type="UnstructuredGrid"  version="0.1"  >
<UnstructuredGrid>
<Piece  NumberOfPoints="101" NumberOfCells="100">
<Points>
<DataArray  type="Float64"  NumberOfComponents="3"  format="ascii">0 0 0  0.001 0 0  0.002 0 0  0.003 0 0  0.004 0 0  0.005 0 0  0.006000000000000001 0 0  0.007000000000000001 0 0  0.008 0 0  0.009000000000000001 0 0  0.01 0 0  0.011 0 0  0.012 0 0  0.013 0 0  0.014 0 0  0.015 0 0  0.016 0 0  0.017 0 0  0.018 0 0  0.019 0 0  0.02 0 0  0.021 0 0  0.022 0 0  0.023 0 0  0.024 0 0  0.025 0 0  0.026 0 0  0.027 0 0  0.028 0 0  0.029 0 0  0.03 0 0  0.031 0 0  0.032 0 0  0.033 0 0  0.034 0 0  0.035 0 0  0.036 0 0  0.03700000000000001 0 0  0.03800000000000001 0 0  0.03900000000000001 0 0  0.04 0 0  0.04100000000000001 0 0  0.042 0 0  0.043 0 0  0.044 0 0  0.045 0 0  0.04600000000000001 0 0  0.047 0 0  0.04800000000000001 0 0  0.049 0 0  0.05 0 0  0.051 0 0  0.052 0 0  0.05300000000000001 0 0  0.05400000000000001 0 0  0.055 0 0  0.05600000000000001 0 0  0.057 0 0  0.05800000000000001 0 0  0.059 0 0  0.06 0 0  0.06100000000000001 0 0  0.062 0 0  0.063 0 0  0.064 0 0  0.065 0 0  0.066 0 0  0.067 0 0  0.068 0 0  0.06900000000000001 0 0  0.07000000000000001 0 0  0.07100000000000001 0 0  0.07200000000000001 0 0  0.07300000000000001 0 0  0.07400000000000001 0 0  0.075 0 0  0.07600000000000001 0 0  0.077 0 0  0.07800000000000001 0 0  0.079 0 0  0.08 0 0  0.081 0 0  0.08200000000000002 0 0  0.083 0 0  0.08400000000000001 0 0  0.08500000000000001 0 0  0.08599999999999999 0 0  0.08700000000000001 0 0  0.08800000000000001 0 0  0.08900000000000001 0 0  0.09 0 0  0.091 0 0  0.09200000000000001 0 0  0.09300000000000001 0 0  0.094 0 0  0.095 0 0  0.09600000000000002 0 0  0.09700000000000002 0 0  0.098 0 0  0.099 0 0  0.1 0 0  </DataArray>
</Points>
<Cells>
<DataArray  type="UInt32"  Name="connectivity"  format="ascii">0 1  1 2  2 3  3 4  4 5  5 6  6 7  7 8  8 9  9 10  10 11  11 12  12 13  13 14  14 15  15 16  16 17  17 18  18 19  19 20  20 21  21 22  22 23  23 24  24 25  25 26  26 27  27 28  28 29  29 30  30 31  31 32  32 33  33 34  34 35  35 36  36 37  37 38  38 39  39 40  40 41  41 42  42 43  43 44  44 45  45 46  46 47  47 48  48 49  49 50  50 51  51 52  52 53  53 54  54 55  55 56  56 57  57 58  58 59  59 60  60 61  61 62  62 63  63 64  64 65  65 66  66 67  67 68  68 69  69 70  70 71  71 72  72 73  73 74  74 75  75 76  76 77  77 78  78 79  79 80  80 81  81 82  82 83  83 84  84 85  85 86  86 87  87 88  88 89  89 90  90 91  91 92  92 93  93 94  94 95  95 96  96 97  97 98  98 99  99 100  </DataArray>
<DataArray  type="UInt32"  Name="offsets"  format="ascii">2 4 6 8 10 12 14 16 18 20 22 24 26 28 30 32 34 36 38 40 42 44 46 48 50 52 54 56 58 60 62 64 66 68 70 72 74 76 78 80 82 84 86 88 90 92 94 96 98 100 102 104 106 108 110 112 114 116 118 120 122 124 126 128 130 132 134 136 138 140 142 144 146 148 150 152 154 156 158 160 162 164 166 168 170 172 174 176 178 180 182 184 186 188 190 192 194 196 198 200 </DataArray>
<DataArray  type="UInt8"  Name="types"  format="ascii">3 3 3 3 3 3 3 3 3 3 3 3 3 3 3 3 3 3 3 3 3 3 3 3 3 3 3 3 3 3 3 3 3 3 3 3 3 3 3 3 3 3 3 3 3 3 3 3 3 3 3 3 3 3 3 3 3 3 3 3 3 3 3 3 3 3 3 3 3 3 3 3 3 3 3 3 3 3 3 3 3 3 3 3 3 3 3 3 3 3 3 3 3 3 3 3 3 3 3 3 </DataArray>
</Cells>
<PointData  Scalars="f_14"> 
<DataArray  type="Float64"  Name="f_14"  format="ascii">2.7592189182182975e-04  2.7900263254570086e-04  2.8829636157032029e-04  3.0395812456915816e-04  3.2624808192837550e-04  3.5553413701661394e-04  3.9229561934275636e-04  4.3712802578961562e-04  4.9074882346428206e-04  5.5400431764380609e-04  6.2787758773013593e-04  7.1349749297565748e-04  8.1214874791877276e-04  9.2528306490037386e-04  1.0545313576447873e-03  1.2017169956168286e-03  1.3688700936513765e-03  1.5582428151430852e-03  1.7723256598409895e-03  2.0138646989861847e-03  2.2858797111434434e-03  2.5916831616061343e-03  2.9348999567101312e-03  3.3194878918051591e-03  3.7497586980478597e-03  4.2303995786658255e-03  4.7664951099825334e-03  5.3635493663974276e-03  6.0275081118140363e-03  6.7647808828548610e-03  7.5822627717716615e-03  8.4873556994528691e-03  9.4879889515683460e-03  1.0592638733919716e-02  1.1810346486745638e-02  1.3150735682349344e-02  1.4624026816269155e-02  1.6241050289614610e-02  1.8013256869464148e-02  1.9952725405694424e-02  2.2072167476617520e-02  2.4384928632669414e-02  2.6904985907441122e-02  2.9646941268881670e-02  3.2626010690813279e-02  3.5858008536250811e-02  3.9359326959635156e-02  4.3146910055166229e-02  4.7238222503106213e-02  5.1651212495306263e-02  5.6404268755340943e-02  6.1516171507479109e-02  6.7006037292203363e-02  7.2893257573943049e-02  7.9197431138881516e-02  8.5938290336828912e-02  9.3135621280829958e-02  1.0080917818094226e-01  1.0897859205394142e-01  1.1766327411796354e-01  1.2688231424962795e-01  1.3665437495022323e-01  1.4699758133632168e-01  1.5792940773784631e-01  1.6946656155227333e-01  1.8162486506641459e-01  1.9441913601614630e-01  2.0786306770862251e-01  2.2196910958001398e-01  2.3674834910375708e-01  2.5221039599884060e-01  2.6836326971400598e-01  2.8521329118117072e-01  3.0276497983926887e-01  3.2102095692749716e-01  3.3998185603424014e-01  3.5964624186440808e-01  3.8001053815338848e-01  4.0106896561027228e-01  4.2281349071652857e-01  4.4523378613921971e-01  4.6831720344047834e-01  4.9204875867798475e-01  5.1641113139521511e-01  5.4138467739619478e-01  5.6694745558833637e-01  5.9307526905981633e-01  6.1974172043605347e-01  6.4691828143450492e-01  6.7457437640964479e-01  7.0267747955199811e-01  7.3119322527807418e-01  7.6008553122340161e-01  7.8931673313018691e-01  8.1884773080583650e-01  8.4863814422016470e-01  8.7864647870890289e-01  9.0883029816042460e-01  9.3914640498253188e-01  9.6955102557777917e-01  1.0000000000000000e+00  </DataArray> 
</PointData> 
</Piece>
</UnstructuredGrid>
</VTKFile>