<?xml version="1.0"?>
<VTKFile type="UnstructuredGrid"  version="0.1"  >
<UnstructuredGrid>
<Piece  NumberOfPoints="101" NumberOfCells="100">
<Points>
<DataArray  type="Float64"  NumberOfComponents="3"  format="ascii">0 0 0  0.001 0 0  0.002 0 0  0.003 0 0  0.004 0 0  0.005 0 0  0.006000000000000001 0 0  0.007000000000000001 0 0  0.008 0 0  0.009000000000000001 0 0  0.01 0 0  0.011 0 0  0.012 0 0  0.013 0 0  0.014 0 0  0.015 0 0  0.016 0 0  0.017 0 0  0.018 0 0  0.019 0 0  0.02 0 0  0.021 0 0  0.022 0 0  0.023 0 0  0.024 0 0  0.025 0 0  0.026 0 0  0.027 0 0  0.028 0 0  0.029 0 0  0.03 0 0  0.031 0 0  0.032 0 0  0.033 0 0  0.034 0 0  0.035 0 0  0.036 0 0  0.03700000000000001 0 0  0.03800000000000001 0 0  0.03900000000000001 0 0  0.04 0 0  0.04100000000000001 0 0  0.042 0 0  0.043 0 0  0.044 0 0  0.045 0 0  0.04600000000000001 0 0  0.047 0 0  0.04800000000000001 0 0  0.049 0 0  0.05 0 0  0.051 0 0  0.052 0 0  0.05300000000000001 0 0  0.05400000000000001 0 0  0.055 0 0  0.05600000000000001 0 0  0.057 0 0  0.05800000000000001 0 0  0.059 0 0  0.06 0 0  0.06100000000000001 0 0  0.062 0 0  0.063 0 0  0.064 0 0  0.065 0 0  0.066 0 0  0.067 0 0  0.068 0 0  0.06900000000000001 0 0  0.07000000000000001 0 0  0.07100000000000001 0 0  0.07200000000000001 0 0  0.07300000000000001 0 0  0.07400000000000001 0 0  0.075 0 0  0.07600000000000001 0 0  0.077 0 0  0.07800000000000001 0 0  0.079 0 0  0.08 0 0  0.081 0 0  0.08200000000000002 0 0  0.083 0 0  0.08400000000000001 0 0  0.08500000000000001 0 0  0.08599999999999999 0 0  0.08700000000000001 0 0  0.08800000000000001 0 0  0.08900000000000001 0 0  0.09 0 0  0.091 0 0  0.09200000000000001 0 0  0.09300000000000001 0 0  0.094 0 0  0.095 0 0  0.09600000000000002 0 0  0.09700000000000002 0 0  0.098 0 0  0.099 0 0  0.1 0 0  </DataArray>
</Points>
<Cells>
<DataArray  type="UInt32"  Name="connectivity"  format="ascii">0 1  1 2  2 3  3 4  4 5  5 6  6 7  7 8  8 9  9 10  10 11  11 12  12 13  13 14  14 15  15 16  16 17  17 18  18 19  19 20  20 21  21 22  22 23  23 24  24 25  25 26  26 27  27 28  28 29  29 30  30 31  31 32  32 33  33 34  34 35  35 36  36 37  37 38  38 39  39 40  40 41  41 42  42 43  43 44  44 45  45 46  46 47  47 48  48 49  49 50  50 51  51 52  52 53  53 54  54 55  55 56  56 57  57 58  58 59  59 60  60 61  61 62  62 63  63 64  64 65  65 66  66 67  67 68  68 69  69 70  70 71  71 72  72 73  73 74  74 75  75 76  76 77  77 78  78 79  79 80  80 81  81 82  82 83  83 84  84 85  85 86  86 87  87 88  88 89  89 90  90 91  91 92  92 93  93 94  94 95  95 96  96 97  97 98  98 99  99 100  </DataArray>
<DataArray  type="UInt32"  Name="offsets"  format="ascii">2 4 6 8 10 12 14 16 18 20 22 24 26 28 30 32 34 36 38 40 42 44 46 48 50 52 54 56 58 60 62 64 66 68 70 72 74 76 78 80 82 84 86 88 90 92 94 96 98 100 102 104 106 108 110 112 114 116 118 120 122 124 126 128 130 132 134 136 138 140 142 144 146 148 150 152 154 156 158 160 162 164 166 168 170 172 174 176 178 180 182 184 186 188 190 192 194 196 198 200 </DataArray>
<DataArray  type="UInt8"  Name="types"  format="ascii">3 3 3 3 3 3 3 3 3 3 3 3 3 3 3 3 3 3 3 3 3 3 3 3 3 3 3 3 3 3 3 3 3 3 3 3 3 3 3 3 3 3 3 3 3 3 3 3 3 3 3 3 3 3 3 3 3 3 3 3 3 3 3 3 3 3 3 3 3 3 3 3 3 3 3 3 3 3 3 3 3 3 3 3 3 3 3 3 3 3 3 3 3 3 3 3 3 3 3 3 </DataArray>
</Cells>
<PointData  Scalars="f_14"> 
<DataArray  type="Float64"  Name="f_14"  format="ascii">1.2593445319824757e-05  1.2865224173647481e-05  1.3690154412863898e-05  1.5097271915766509e-05  1.7135823402058590e-05  1.9876561188268450e-05  2.3413584592900090e-05  2.7866756744662336e-05  3.3384733759123514e-05  4.0148651438687887e-05  4.8376522790761865e-05  5.8328407709166600e-05  7.0312424068787817e-05  8.4691677170355047e-05  1.0189219184914503e-04  1.2241193851550910e-04  1.4683105079143341e-04  1.7582333808762032e-04  2.1016920124778399e-04  2.5077006306499012e-04  2.9866442781952094e-04  3.5504568474718236e-04  4.2128176924908221e-04  4.9893679240896544e-04  5.8979474368846426e-04  6.9588536321109123e-04  8.1951226850580071e-04  9.6328340564691721e-04  1.1301438760965951e-03  1.3234111679459508e-03  1.5468127934085679e-03  1.8045263031327219e-03  2.1012216120059068e-03  2.4421055305311368e-03  2.8329683505394919e-03  3.2802322840380376e-03  3.7910014995485826e-03  4.3731134416571107e-03  5.0351910570770198e-03  5.7866954848771086e-03  6.6379787003250576e-03  7.6003355318842109e-03  8.6860544002606600e-03  9.9084660581645750e-03  1.1281989540902589e-02  1.2822174472475379e-02  1.4545738811055510e-02  1.6470601063211261e-02  1.8615905949756612e-02  2.1002042469428529e-02  2.3650653281540153e-02  2.6584634317126831e-02  2.9828123531650028e-02  3.3406477732700272e-02  3.7346236454863291e-02  4.1675071912304316e-02  4.6421724138768827e-02  5.1615920525388256e-02  5.7288279089380410e-02  6.3470194951517206e-02  7.0193709666772769e-02  7.7491363240052138e-02  8.5396028866082455e-02  9.3940730657643579e-02  1.0315844486705687e-01  1.1308188535947565e-01  1.2374327435976375e-01  1.3517409976391251e-01  1.4740486057690660e-01  1.6046480230722973e-01  1.7438164440903700e-01  1.8918130211143469e-01  2.0488760520520696e-01  2.2152201656559606e-01  2.3910335337035404e-01  2.5764751412041065e-01  2.7716721468163830e-01  2.9767173663624447e-01  3.1916669125778413e-01  3.4165380240169674e-01  3.6513071153159238e-01  3.8959080797880297e-01  4.1502308735867299e-01  4.4141204084213814e-01  4.6873757770690672e-01  4.9697498327149431e-01  5.2609491395101360e-01  5.5606343077040044e-01  5.8684207223404006e-01  6.1838796698673437e-01  6.5065398621643411e-01  6.8358893525170850e-01  7.1713778330441091e-01  7.5124192980867976e-01  7.8583950531965685e-01  8.2086570446743445e-01  8.5625314802192187e-01  8.9193227072028292e-01  9.2783173114754081e-01  9.6387883964940768e-01  1.0000000000000000e+00  </DataArray> 
</PointData> 
</Piece>
</UnstructuredGrid>
</VTKFile>