<?xml version="1.0"?>
<VTKFile type="UnstructuredGrid"  version="0.1"  >
<UnstructuredGrid>
<Piece  NumberOfPoints="101" NumberOfCells="100">
<Points>
<DataArray  type="Float64"  NumberOfComponents="3"  format="ascii">0 0 0  0.001 0 0  0.002 0 0  0.003 0 0  0.004 0 0  0.005 0 0  0.006000000000000001 0 0  0.007000000000000001 0 0  0.008 0 0  0.009000000000000001 0 0  0.01 0 0  0.011 0 0  0.012 0 0  0.013 0 0  0.014 0 0  0.015 0 0  0.016 0 0  0.017 0 0  0.018 0 0  0.019 0 0  0.02 0 0  0.021 0 0  0.022 0 0  0.023 0 0  0.024 0 0  0.025 0 0  0.026 0 0  0.027 0 0  0.028 0 0  0.029 0 0  0.03 0 0  0.031 0 0  0.032 0 0  0.033 0 0  0.034 0 0  0.035 0 0  0.036 0 0  0.03700000000000001 0 0  0.03800000000000001 0 0  0.03900000000000001 0 0  0.04 0 0  0.04100000000000001 0 0  0.042 0 0  0.043 0 0  0.044 0 0  0.045 0 0  0.04600000000000001 0 0  0.047 0 0  0.04800000000000001 0 0  0.049 0 0  0.05 0 0  0.051 0 0  0.052 0 0  0.05300000000000001 0 0  0.05400000000000001 0 0  0.055 0 0  0.05600000000000001 0 0  0.057 0 0  0.05800000000000001 0 0  0.059 0 0  0.06 0 0  0.06100000000000001 0 0  0.062 0 0  0.063 0 0  0.064 0 0  0.065 0 0  0.066 0 0  0.067 0 0  0.068 0 0  0.06900000000000001 0 0  0.07000000000000001 0 0  0.07100000000000001 0 0  0.07200000000000001 0 0  0.07300000000000001 0 0  0.07400000000000001 0 0  0.075 0 0  0.07600000000000001 0 0  0.077 0 0  0.07800000000000001 0 0  0.079 0 0  0.08 0 0  0.081 0 0  0.08200000000000002 0 0  0.083 0 0  0.08400000000000001 0 0  0.08500000000000001 0 0  0.08599999999999999 0 0  0.08700000000000001 0 0  0.08800000000000001 0 0  0.08900000000000001 0 0  0.09 0 0  0.091 0 0  0.09200000000000001 0 0  0.09300000000000001 0 0  0.094 0 0  0.095 0 0  0.09600000000000002 0 0  0.09700000000000002 0 0  0.098 0 0  0.099 0 0  0.1 0 0  </DataArray>
</Points>
<Cells>
<DataArray  type="UInt32"  Name="connectivity"  format="ascii">0 1  1 2  2 3  3 4  4 5  5 6  6 7  7 8  8 9  9 10  10 11  11 12  12 13  13 14  14 15  15 16  16 17  17 18  18 19  19 20  20 21  21 22  22 23  23 24  24 25  25 26  26 27  27 28  28 29  29 30  30 31  31 32  32 33  33 34  34 35  35 36  36 37  37 38  38 39  39 40  40 41  41 42  42 43  43 44  44 45  45 46  46 47  47 48  48 49  49 50  50 51  51 52  52 53  53 54  54 55  55 56  56 57  57 58  58 59  59 60  60 61  61 62  62 63  63 64  64 65  65 66  66 67  67 68  68 69  69 70  70 71  71 72  72 73  73 74  74 75  75 76  76 77  77 78  78 79  79 80  80 81  81 82  82 83  83 84  84 85  85 86  86 87  87 88  88 89  89 90  90 91  91 92  92 93  93 94  94 95  95 96  96 97  97 98  98 99  99 100  </DataArray>
<DataArray  type="UInt32"  Name="offsets"  format="ascii">2 4 6 8 10 12 14 16 18 20 22 24 26 28 30 32 34 36 38 40 42 44 46 48 50 52 54 56 58 60 62 64 66 68 70 72 74 76 78 80 82 84 86 88 90 92 94 96 98 100 102 104 106 108 110 112 114 116 118 120 122 124 126 128 130 132 134 136 138 140 142 144 146 148 150 152 154 156 158 160 162 164 166 168 170 172 174 176 178 180 182 184 186 188 190 192 194 196 198 200 </DataArray>
<DataArray  type="UInt8"  Name="types"  format="ascii">3 3 3 3 3 3 3 3 3 3 3 3 3 3 3 3 3 3 3 3 3 3 3 3 3 3 3 3 3 3 3 3 3 3 3 3 3 3 3 3 3 3 3 3 3 3 3 3 3 3 3 3 3 3 3 3 3 3 3 3 3 3 3 3 3 3 3 3 3 3 3 3 3 3 3 3 3 3 3 3 3 3 3 3 3 3 3 3 3 3 3 3 3 3 3 3 3 3 3 3 </DataArray>
</Cells>
<PointData  Scalars="f_14"> 
<DataArray  type="Float64"  Name="f_14"  format="ascii">1.0198737268310627e-03  1.0278352473875501e-03  1.0518070255912952e-03  1.0920511776214602e-03  1.1490061171126984e-03  1.2232888784231980e-03  1.3156983556593235e-03  1.4272194437244747e-03  1.5590280634801025e-03  1.7124970487413850e-03  1.8892028682445138e-03  2.0909331508866436e-03  2.3196949774279803e-03  2.5777238964383524e-03  2.8674936165542435e-03  3.1917263210797723e-03  3.5534035446168708e-03  3.9557775447543334e-03  4.4023830948991096e-03  4.8970496171214968e-03  5.4439135664432793e-03  6.0474309703679599e-03  6.7123900196881733e-03  7.4439235987696275e-03  8.2475216356753377e-03  9.1290431447395189e-03  1.0094727826616998e-02  1.1151207083519249e-02  1.2305514300408320e-02  1.3565094236466802e-02  1.4937811365314786e-02  1.6431956997326174e-02  1.8056255013134001e-02  1.9819866034136498e-02  2.1732389853651893e-02  2.3803865951449541e-02  2.6044771914833131e-02  2.8466019591389904e-02  3.1078948802061898e-02  3.3895318448446947e-02  3.6927294855292989e-02  4.0187437198090703e-02  4.3688679876562338e-02  4.7444311707740688e-02  5.1467951827255866e-02  5.5773522204415525e-02  6.0375216695656972e-02  6.5287466581929354e-02  7.0524902558474725e-02  7.6102313170215083e-02  8.2034599712417985e-02  8.8336727644343221e-02  9.5023674593012433e-02  1.0211037505487626e-01  1.0961166193476650e-01  1.1754220509385192e-01  1.2591644711109595e-01  1.3474853649563862e-01  1.4405225862028667e-01  1.5384096467854025e-01  1.6412749899899409e-01  1.7492412508113306e-01  1.8624245074516266e-01  1.9809335281519200e-01  2.1048690177945537e-01  2.2343228689298014e-01  2.3693774220681624e-01  2.5101047402332832e-01  2.6565659028879984e-01  2.8088103244243673e-01  2.9668751024453266e-01  3.1307844010586766e-01  3.3005488743517059e-01  3.4761651351157219e-01  3.6576152737431084e-01  3.8448664320251302e-01  4.0378704363365930e-01  4.2365634944044622e-01  4.4408659595230571e-01  4.6506821656998543e-01  4.8659003367963644e-01  5.0863925722700232e-01  5.3120149116297533e-01  5.5426074791931557e-01  5.7779947101818829e-01  6.0179856586180025e-01  6.2623743868936765e-01  6.5109404362842027e-01  6.7634493770662407e-01  7.0196534362949115e-01  7.2792922006908622e-01  7.5420933914978239e-01  7.8077737075983544e-01  8.0760397326261990e-01  8.3465889012938788e-01  8.6191105196688123e-01  8.8932868336860316e-01  9.1687941397847927e-01  9.4453039312044618e-01  9.7224840731757556e-01  1.0000000000000000e+00  </DataArray> 
</PointData> 
</Piece>
</UnstructuredGrid>
</VTKFile>