<?xml version="1.0"?>
<VTKFile type="UnstructuredGrid"  version="0.1"  >
<UnstructuredGrid>
<Piece  NumberOfPoints="101" NumberOfCells="100">
<Points>
<DataArray  type="Float64"  NumberOfComponents="3"  format="ascii">0 0 0  0.001 0 0  0.002 0 0  0.003 0 0  0.004 0 0  0.005 0 0  0.006000000000000001 0 0  0.007000000000000001 0 0  0.008 0 0  0.009000000000000001 0 0  0.01 0 0  0.011 0 0  0.012 0 0  0.013 0 0  0.014 0 0  0.015 0 0  0.016 0 0  0.017 0 0  0.018 0 0  0.019 0 0  0.02 0 0  0.021 0 0  0.022 0 0  0.023 0 0  0.024 0 0  0.025 0 0  0.026 0 0  0.027 0 0  0.028 0 0  0.029 0 0  0.03 0 0  0.031 0 0  0.032 0 0  0.033 0 0  0.034 0 0  0.035 0 0  0.036 0 0  0.03700000000000001 0 0  0.03800000000000001 0 0  0.03900000000000001 0 0  0.04 0 0  0.04100000000000001 0 0  0.042 0 0  0.043 0 0  0.044 0 0  0.045 0 0  0.04600000000000001 0 0  0.047 0 0  0.04800000000000001 0 0  0.049 0 0  0.05 0 0  0.051 0 0  0.052 0 0  0.05300000000000001 0 0  0.05400000000000001 0 0  0.055 0 0  0.05600000000000001 0 0  0.057 0 0  0.05800000000000001 0 0  0.059 0 0  0.06 0 0  0.06100000000000001 0 0  0.062 0 0  0.063 0 0  0.064 0 0  0.065 0 0  0.066 0 0  0.067 0 0  0.068 0 0  0.06900000000000001 0 0  0.07000000000000001 0 0  0.07100000000000001 0 0  0.07200000000000001 0 0  0.07300000000000001 0 0  0.07400000000000001 0 0  0.075 0 0  0.07600000000000001 0 0  0.077 0 0  0.07800000000000001 0 0  0.079 0 0  0.08 0 0  0.081 0 0  0.08200000000000002 0 0  0.083 0 0  0.08400000000000001 0 0  0.08500000000000001 0 0  0.08599999999999999 0 0  0.08700000000000001 0 0  0.08800000000000001 0 0  0.08900000000000001 0 0  0.09 0 0  0.091 0 0  0.09200000000000001 0 0  0.09300000000000001 0 0  0.094 0 0  0.095 0 0  0.09600000000000002 0 0  0.09700000000000002 0 0  0.098 0 0  0.099 0 0  0.1 0 0  </DataArray>
</Points>
<Cells>
<DataArray  type="UInt32"  Name="connectivity"  format="ascii">0 1  1 2  2 3  3 4  4 5  5 6  6 7  7 8  8 9  9 10  10 11  11 12  12 13  13 14  14 15  15 16  16 17  17 18  18 19  19 20  20 21  21 22  22 23  23 24  24 25  25 26  26 27  27 28  28 29  29 30  30 31  31 32  32 33  33 34  34 35  35 36  36 37  37 38  38 39  39 40  40 41  41 42  42 43  43 44  44 45  45 46  46 47  47 48  48 49  49 50  50 51  51 52  52 53  53 54  54 55  55 56  56 57  57 58  58 59  59 60  60 61  61 62  62 63  63 64  64 65  65 66  66 67  67 68  68 69  69 70  70 71  71 72  72 73  73 74  74 75  75 76  76 77  77 78  78 79  79 80  80 81  81 82  82 83  83 84  84 85  85 86  86 87  87 88  88 89  89 90  90 91  91 92  92 93  93 94  94 95  95 96  96 97  97 98  98 99  99 100  </DataArray>
<DataArray  type="UInt32"  Name="offsets"  format="ascii">2 4 6 8 10 12 14 16 18 20 22 24 26 28 30 32 34 36 38 40 42 44 46 48 50 52 54 56 58 60 62 64 66 68 70 72 74 76 78 80 82 84 86 88 90 92 94 96 98 100 102 104 106 108 110 112 114 116 118 120 122 124 126 128 130 132 134 136 138 140 142 144 146 148 150 152 154 156 158 160 162 164 166 168 170 172 174 176 178 180 182 184 186 188 190 192 194 196 198 200 </DataArray>
<DataArray  type="UInt8"  Name="types"  format="ascii">3 3 3 3 3 3 3 3 3 3 3 3 3 3 3 3 3 3 3 3 3 3 3 3 3 3 3 3 3 3 3 3 3 3 3 3 3 3 3 3 3 3 3 3 3 3 3 3 3 3 3 3 3 3 3 3 3 3 3 3 3 3 3 3 3 3 3 3 3 3 3 3 3 3 3 3 3 3 3 3 3 3 3 3 3 3 3 3 3 3 3 3 3 3 3 3 3 3 3 3 </DataArray>
</Cells>
<PointData  Scalars="f_14"> 
<DataArray  type="Float64"  Name="f_14"  format="ascii">8.8507346488801123e-05  8.9799160796950054e-05  9.3703990918036340e-05  1.0031045138911663e-04  1.0976774561744360e-04  1.2228794401301354e-04  1.3814919194051359e-04  1.5769986567714596e-04  1.8136369921283006e-04  2.0964590896395874e-04  2.4314034719287404e-04  2.8253771803104719e-04  3.2863489238986763e-04  3.8234535960106477e-04  4.4471085424836201e-04  5.1691419622002161e-04  6.0029338041414897e-04  6.9635694965048810e-04  8.0680068007081269e-04  9.3352560253488217e-04  1.0786573761356394e-03  1.2445670208689286e-03  1.4338930056131303e-03  1.6495646748298993e-03  1.8948269827325814e-03  2.1732664870481198e-03  2.4888385359094264e-03  2.8458955608738380e-03  3.2492163666163038e-03  3.7040362835748289e-03  4.2160780238503000e-03  4.7915830531441795e-03  5.4373432626608270e-03  6.1607326949579830e-03  6.9697390469983227e-03  7.8729946424855504e-03  8.8798065343570435e-03  1.0000185367496807e-02  1.1244872601818494e-02  1.2625365667382522e-02  1.4153940596726467e-02  1.5843671655709858e-02  1.7708447473534544e-02  1.9762983155851503e-02  2.2022827852660371e-02  2.4504367245708772e-02  2.7224820418946534e-02  3.0202230580900248e-02  3.3455449120188364e-02  3.7004112495311908e-02  4.0868611487794686e-02  4.5070052384071614e-02  4.9630209696518740e-02  5.4571470087838671e-02  5.9916767225705568e-02  6.5689507366034142e-02  7.1913485543226213e-02  7.8612792333866185e-02  8.5811711256029738e-02  9.3534606968906087e-02  1.0180580454594122e-01  1.1064946020811735e-01  1.2008942402110792e-01  1.3014909517951889e-01  1.4085127062175776e-01  1.5221798783866969e-01  1.6427036285621763e-01  1.7702842448539566e-01  1.9051094603941074e-01  2.0473527581709511e-01  2.1971716774067454e-01  2.3547061361361102e-01  2.5200767852853223e-01  2.6933834100463372e-01  2.8747033946691303e-01  3.0640902669486653e-01  3.2615723386475387e-01  3.4671514578634460e-01  3.6808018889163863e-01  3.9024693346902417e-01  4.1320701155178785e-01  4.3694905176502258e-01  4.6145863231052303e-01  4.8671825312609490e-01  5.1270732809517328e-01  5.3940219800628630e-01  5.6677616477165904e-01  5.9479954721223938e-01  6.2343975850507038e-01  6.5266140517087501e-01  6.8242640725767523e-01  7.1269413915325264e-01  7.4342159023818333e-01  7.7456354437515140e-01  8.0607277702222924e-01  8.3790026856078259e-01  8.6999543224544429e-01  9.0230635501686540e-01  9.3478004927011926e-01  9.6736271354490944e-01  1.0000000000000000e+00  </DataArray> 
</PointData> 
</Piece>
</UnstructuredGrid>
</VTKFile>