<?xml version="1.0"?>
<VTKFile type="UnstructuredGrid"  version="0.1"  >
<UnstructuredGrid>
<Piece  NumberOfPoints="101" NumberOfCells="100">
<Points>
<DataArray  type="Float64"  NumberOfComponents="3"  format="ascii">0 0 0  0.001 0 0  0.002 0 0  0.003 0 0  0.004 0 0  0.005 0 0  0.006000000000000001 0 0  0.007000000000000001 0 0  0.008 0 0  0.009000000000000001 0 0  0.01 0 0  0.011 0 0  0.012 0 0  0.013 0 0  0.014 0 0  0.015 0 0  0.016 0 0  0.017 0 0  0.018 0 0  0.019 0 0  0.02 0 0  0.021 0 0  0.022 0 0  0.023 0 0  0.024 0 0  0.025 0 0  0.026 0 0  0.027 0 0  0.028 0 0  0.029 0 0  0.03 0 0  0.031 0 0  0.032 0 0  0.033 0 0  0.034 0 0  0.035 0 0  0.036 0 0  0.03700000000000001 0 0  0.03800000000000001 0 0  0.03900000000000001 0 0  0.04 0 0  0.04100000000000001 0 0  0.042 0 0  0.043 0 0  0.044 0 0  0.045 0 0  0.04600000000000001 0 0  0.047 0 0  0.04800000000000001 0 0  0.049 0 0  0.05 0 0  0.051 0 0  0.052 0 0  0.05300000000000001 0 0  0.05400000000000001 0 0  0.055 0 0  0.05600000000000001 0 0  0.057 0 0  0.05800000000000001 0 0  0.059 0 0  0.06 0 0  0.06100000000000001 0 0  0.062 0 0  0.063 0 0  0.064 0 0  0.065 0 0  0.066 0 0  0.067 0 0  0.068 0 0  0.06900000000000001 0 0  0.07000000000000001 0 0  0.07100000000000001 0 0  0.07200000000000001 0 0  0.07300000000000001 0 0  0.07400000000000001 0 0  0.075 0 0  0.07600000000000001 0 0  0.077 0 0  0.07800000000000001 0 0  0.079 0 0  0.08 0 0  0.081 0 0  0.08200000000000002 0 0  0.083 0 0  0.08400000000000001 0 0  0.08500000000000001 0 0  0.08599999999999999 0 0  0.08700000000000001 0 0  0.08800000000000001 0 0  0.08900000000000001 0 0  0.09 0 0  0.091 0 0  0.09200000000000001 0 0  0.09300000000000001 0 0  0.094 0 0  0.095 0 0  0.09600000000000002 0 0  0.09700000000000002 0 0  0.098 0 0  0.099 0 0  0.1 0 0  </DataArray>
</Points>
<Cells>
<DataArray  type="UInt32"  Name="connectivity"  format="ascii">0 1  1 2  2 3  3 4  4 5  5 6  6 7  7 8  8 9  9 10  10 11  11 12  12 13  13 14  14 15  15 16  16 17  17 18  18 19  19 20  20 21  21 22  22 23  23 24  24 25  25 26  26 27  27 28  28 29  29 30  30 31  31 32  32 33  33 34  34 35  35 36  36 37  37 38  38 39  39 40  40 41  41 42  42 43  43 44  44 45  45 46  46 47  47 48  48 49  49 50  50 51  51 52  52 53  53 54  54 55  55 56  56 57  57 58  58 59  59 60  60 61  61 62  62 63  63 64  64 65  65 66  66 67  67 68  68 69  69 70  70 71  71 72  72 73  73 74  74 75  75 76  76 77  77 78  78 79  79 80  80 81  81 82  82 83  83 84  84 85  85 86  86 87  87 88  88 89  89 90  90 91  91 92  92 93  93 94  94 95  95 96  96 97  97 98  98 99  99 100  </DataArray>
<DataArray  type="UInt32"  Name="offsets"  format="ascii">2 4 6 8 10 12 14 16 18 20 22 24 26 28 30 32 34 36 38 40 42 44 46 48 50 52 54 56 58 60 62 64 66 68 70 72 74 76 78 80 82 84 86 88 90 92 94 96 98 100 102 104 106 108 110 112 114 116 118 120 122 124 126 128 130 132 134 136 138 140 142 144 146 148 150 152 154 156 158 160 162 164 166 168 170 172 174 176 178 180 182 184 186 188 190 192 194 196 198 200 </DataArray>
<DataArray  type="UInt8"  Name="types"  format="ascii">3 3 3 3 3 3 3 3 3 3 3 3 3 3 3 3 3 3 3 3 3 3 3 3 3 3 3 3 3 3 3 3 3 3 3 3 3 3 3 3 3 3 3 3 3 3 3 3 3 3 3 3 3 3 3 3 3 3 3 3 3 3 3 3 3 3 3 3 3 3 3 3 3 3 3 3 3 3 3 3 3 3 3 3 3 3 3 3 3 3 3 3 3 3 3 3 3 3 3 3 </DataArray>
</Cells>
<PointData  Scalars="f_14"> 
<DataArray  type="Float64"  Name="f_14"  format="ascii">1.6549570099126171e-05  1.6889143142556900e-05  1.7919194835380813e-05  1.9674004291009065e-05  2.2211645541283590e-05  2.5615415109865997e-05  2.9995859209766696e-05  3.5493429100623205e-05  4.2281801198838343e-05  5.0571906500407684e-05  6.0616721710975355e-05  7.2716882126804138e-05  8.7227183706113049e-05  1.0456404882876900e-04  1.2521403686218562e-04  1.4974348671218304e-04  1.7880938389938465e-04  2.1317154920395272e-04  2.5370624938308853e-04  3.0142133268559312e-04  3.5747299264565302e-04  4.2318426269614474e-04  5.0006534124730066e-04  5.8983584176480058e-04  6.9444905477954037e-04  8.1611829839379471e-04  9.5734542044228501e-04  1.1209514987583441e-03  1.3101097657386171e-03  1.5283807593737247e-03  1.7797496749311136e-03  2.0686658593985652e-03  2.4000843545363242e-03  2.7795093539222239e-03  3.2130393947636449e-03  3.7074140566364963e-03  4.2700618869357327e-03  4.9091492170326928e-03  5.6336294743953349e-03  6.4532925348244254e-03  7.3788135962047554e-03  8.4218009916086304e-03  9.5948422961912513e-03  1.0911548020184290e-02  1.2386592120642255e-02  1.4035748508757436e-02  1.5875922678956534e-02  1.7925177542127749e-02  2.0202752509762296e-02  2.2729074850111278e-02  2.5525762323251665e-02  2.8615616100768751e-02  3.2022602989087212e-02  3.5771826004683885e-02  3.9889482395719204e-02  4.4402808269056813e-02  4.9340009064996852e-02  5.4730175224844468e-02  6.0603182518878744e-02  6.6989576644222393e-02  7.3920441863025863e-02  8.1427253630319038e-02  8.9541715356509261e-02  9.8295579660011997e-02  1.0772045468866241e-01  1.1784759632173220e-01  1.2870768730448626e-01  1.4033060461083860e-01  1.5274517657302555e-01  1.6597893155625598e-01  1.8005784018674967e-01  1.9500605335901247e-01  2.1084563844813861e-01  2.2759631633090530e-01  2.4527520197108782e-01  2.6389655144563595e-01  2.8347151837529161e-01  3.0400792277246635e-01  3.2551003532785622e-01  3.4797838012295867e-01  3.7140955867682385e-01  3.9579609811098410e-01  4.2112632604656203e-01  4.4738427463267899e-01  4.7454961584711225e-01  5.0259762991106316e-01  5.3149920832324193e-01  5.6122089264828678e-01  5.9172494979570822e-01  6.2296948410365738e-01  6.5490858610291691e-01  6.8749251738736739e-01  7.2066793056467826e-01  7.5437812281246808e-01  7.8856332112792438e-01  8.2316099694024347e-01  8.5810620736229015e-01  8.9333195999740145e-01  9.2876959789546587e-01  9.6434920097502241e-01  1.0000000000000000e+00  </DataArray> 
</PointData> 
</Piece>
</UnstructuredGrid>
</VTKFile>