<?xml version="1.0"?>
<VTKFile type="UnstructuredGrid"  version="0.1"  >
<UnstructuredGrid>
<Piece  NumberOfPoints="101" NumberOfCells="100">
<Points>
<DataArray  type="Float64"  NumberOfComponents="3"  format="ascii">0 0 0  0.001 0 0  0.002 0 0  0.003 0 0  0.004 0 0  0.005 0 0  0.006000000000000001 0 0  0.007000000000000001 0 0  0.008 0 0  0.009000000000000001 0 0  0.01 0 0  0.011 0 0  0.012 0 0  0.013 0 0  0.014 0 0  0.015 0 0  0.016 0 0  0.017 0 0  0.018 0 0  0.019 0 0  0.02 0 0  0.021 0 0  0.022 0 0  0.023 0 0  0.024 0 0  0.025 0 0  0.026 0 0  0.027 0 0  0.028 0 0  0.029 0 0  0.03 0 0  0.031 0 0  0.032 0 0  0.033 0 0  0.034 0 0  0.035 0 0  0.036 0 0  0.03700000000000001 0 0  0.03800000000000001 0 0  0.03900000000000001 0 0  0.04 0 0  0.04100000000000001 0 0  0.042 0 0  0.043 0 0  0.044 0 0  0.045 0 0  0.04600000000000001 0 0  0.047 0 0  0.04800000000000001 0 0  0.049 0 0  0.05 0 0  0.051 0 0  0.052 0 0  0.05300000000000001 0 0  0.05400000000000001 0 0  0.055 0 0  0.05600000000000001 0 0  0.057 0 0  0.05800000000000001 0 0  0.059 0 0  0.06 0 0  0.06100000000000001 0 0  0.062 0 0  0.063 0 0  0.064 0 0  0.065 0 0  0.066 0 0  0.067 0 0  0.068 0 0  0.06900000000000001 0 0  0.07000000000000001 0 0  0.07100000000000001 0 0  0.07200000000000001 0 0  0.07300000000000001 0 0  0.07400000000000001 0 0  0.075 0 0  0.07600000000000001 0 0  0.077 0 0  0.07800000000000001 0 0  0.079 0 0  0.08 0 0  0.081 0 0  0.08200000000000002 0 0  0.083 0 0  0.08400000000000001 0 0  0.08500000000000001 0 0  0.08599999999999999 0 0  0.08700000000000001 0 0  0.08800000000000001 0 0  0.08900000000000001 0 0  0.09 0 0  0.091 0 0  0.09200000000000001 0 0  0.09300000000000001 0 0  0.094 0 0  0.095 0 0  0.09600000000000002 0 0  0.09700000000000002 0 0  0.098 0 0  0.099 0 0  0.1 0 0  </DataArray>
</Points>
<Cells>
<DataArray  type="UInt32"  Name="connectivity"  format="ascii">0 1  1 2  2 3  3 4  4 5  5 6  6 7  7 8  8 9  9 10  10 11  11 12  12 13  13 14  14 15  15 16  16 17  17 18  18 19  19 20  20 21  21 22  22 23  23 24  24 25  25 26  26 27  27 28  28 29  29 30  30 31  31 32  32 33  33 34  34 35  35 36  36 37  37 38  38 39  39 40  40 41  41 42  42 43  43 44  44 45  45 46  46 47  47 48  48 49  49 50  50 51  51 52  52 53  53 54  54 55  55 56  56 57  57 58  58 59  59 60  60 61  61 62  62 63  63 64  64 65  65 66  66 67  67 68  68 69  69 70  70 71  71 72  72 73  73 74  74 75  75 76  76 77  77 78  78 79  79 80  80 81  81 82  82 83  83 84  84 85  85 86  86 87  87 88  88 89  89 90  90 91  91 92  92 93  93 94  94 95  95 96  96 97  97 98  98 99  99 100  </DataArray>
<DataArray  type="UInt32"  Name="offsets"  format="ascii">2 4 6 8 10 12 14 16 18 20 22 24 26 28 30 32 34 36 38 40 42 44 46 48 50 52 54 56 58 60 62 64 66 68 70 72 74 76 78 80 82 84 86 88 90 92 94 96 98 100 102 104 106 108 110 112 114 116 118 120 122 124 126 128 130 132 134 136 138 140 142 144 146 148 150 152 154 156 158 160 162 164 166 168 170 172 174 176 178 180 182 184 186 188 190 192 194 196 198 200 </DataArray>
<DataArray  type="UInt8"  Name="types"  format="ascii">3 3 3 3 3 3 3 3 3 3 3 3 3 3 3 3 3 3 3 3 3 3 3 3 3 3 3 3 3 3 3 3 3 3 3 3 3 3 3 3 3 3 3 3 3 3 3 3 3 3 3 3 3 3 3 3 3 3 3 3 3 3 3 3 3 3 3 3 3 3 3 3 3 3 3 3 3 3 3 3 3 3 3 3 3 3 3 3 3 3 3 3 3 3 3 3 3 3 3 3 </DataArray>
</Cells>
<PointData  Scalars="f_14"> 
<DataArray  type="Float64"  Name="f_14"  format="ascii">4.6379391696176126e-06  4.7571220350593179e-06  5.1197728574472069e-06  5.7413685180196462e-06  6.6482749610045397e-06  7.8786172295039456e-06  9.4835242581995936e-06  1.1528775387911769e-05  1.4096883578411382e-05  1.7289658518386627e-05  2.1231301290465491e-05  2.6072090956788935e-05  3.1992732382972168e-05  3.9209443792831765e-05  4.7979871898913029e-05  5.8609931916155648e-05  7.1461679242297010e-05  8.6962328953174133e-05  1.0561454835575978e-04  1.2800815647353594e-04  1.5483337227793173e-04  1.8689576045821158e-04  2.2513302923380507e-04  2.7063383881244956e-04  3.2465878120206383e-04  3.8866369177635162e-04  4.6432544982478714e-04  5.5357041881182482e-04  6.5860566673375971e-04  7.8195309229000382e-04  9.2648656307424263e-04  1.0954721471482251e-03  1.2926114887221833e-03  1.5220883418099595e-03  1.7886182322939469e-03  2.0975011685462441e-03  2.4546772634306698e-03  2.8667850661014374e-03  3.3412223306091091e-03  3.8862088701801184e-03  4.5108510615968159e-03  5.2252074740206456e-03  6.0403550017436866e-03  6.9684547818314310e-03  8.0228170767825055e-03  9.2179642007794906e-03  1.0569690467682314e-02  1.2095118041701537e-02  1.3812747479984724e-02  1.5742501672645251e-02  1.7905761812718364e-02  2.0325393968913228e-02  2.3025764790688873e-02  2.6032744850963716e-02  2.9373698129469373e-02  3.3077456162041996e-02  3.7174275430462478e-02  4.1695776645969664e-02  4.6674864689066897e-02  5.2145628110034592e-02  5.8143217269441189e-02  6.4703700406053805e-02  7.1863897160370838e-02  7.9661189354244072e-02  8.8133309128656481e-02  9.7318104869791894e-02  1.0725328570434264e-01  1.1797614571401993e-01  1.2952326940113046e-01  1.4193022032580607e-01  1.5523121522431527e-01  1.6945878629959341e-01  1.8464343474202582e-01  2.0081327888265563e-01  2.1799370069430424e-01  2.3620699463059203e-01  2.5547202302080668e-01  2.7580388241268661e-01  2.9721358536889536e-01  3.1970776227041237e-01  3.4328838765662628e-01  3.6795253553394508e-01  3.9369216791017186e-01  4.2049396055995308e-01  4.4833916969822146e-01  4.7720354283618199e-01  5.0705727662222744e-01  5.3786502393391811e-01  5.6958595189418615e-01  6.0217385184400685e-01  6.3557730162491943e-01  6.6973987981926775e-01  7.0460043087586044e-01  7.4009337932672437e-01  7.7614909058979931e-01  8.1269427516601989e-01  8.4965243239023069e-01  8.8694432929625122e-01  9.2448850961879669e-01  9.6220182748948158e-01  1.0000000000000000e+00  </DataArray> 
</PointData> 
</Piece>
</UnstructuredGrid>
</VTKFile>