<?xml version="1.0"?>
<VTKFile type="UnstructuredGrid"  version="0.1"  >
<UnstructuredGrid>
<Piece  NumberOfPoints="101" NumberOfCells="100">
<Points>
<DataArray  type="Float64"  NumberOfComponents="3"  format="ascii">0 0 0  0.001 0 0  0.002 0 0  0.003 0 0  0.004 0 0  0.005 0 0  0.006000000000000001 0 0  0.007000000000000001 0 0  0.008 0 0  0.009000000000000001 0 0  0.01 0 0  0.011 0 0  0.012 0 0  0.013 0 0  0.014 0 0  0.015 0 0  0.016 0 0  0.017 0 0  0.018 0 0  0.019 0 0  0.02 0 0  0.021 0 0  0.022 0 0  0.023 0 0  0.024 0 0  0.025 0 0  0.026 0 0  0.027 0 0  0.028 0 0  0.029 0 0  0.03 0 0  0.031 0 0  0.032 0 0  0.033 0 0  0.034 0 0  0.035 0 0  0.036 0 0  0.03700000000000001 0 0  0.03800000000000001 0 0  0.03900000000000001 0 0  0.04 0 0  0.04100000000000001 0 0  0.042 0 0  0.043 0 0  0.044 0 0  0.045 0 0  0.04600000000000001 0 0  0.047 0 0  0.04800000000000001 0 0  0.049 0 0  0.05 0 0  0.051 0 0  0.052 0 0  0.05300000000000001 0 0  0.05400000000000001 0 0  0.055 0 0  0.05600000000000001 0 0  0.057 0 0  0.05800000000000001 0 0  0.059 0 0  0.06 0 0  0.06100000000000001 0 0  0.062 0 0  0.063 0 0  0.064 0 0  0.065 0 0  0.066 0 0  0.067 0 0  0.068 0 0  0.06900000000000001 0 0  0.07000000000000001 0 0  0.07100000000000001 0 0  0.07200000000000001 0 0  0.07300000000000001 0 0  0.07400000000000001 0 0  0.075 0 0  0.07600000000000001 0 0  0.077 0 0  0.07800000000000001 0 0  0.079 0 0  0.08 0 0  0.081 0 0  0.08200000000000002 0 0  0.083 0 0  0.08400000000000001 0 0  0.08500000000000001 0 0  0.08599999999999999 0 0  0.08700000000000001 0 0  0.08800000000000001 0 0  0.08900000000000001 0 0  0.09 0 0  0.091 0 0  0.09200000000000001 0 0  0.09300000000000001 0 0  0.094 0 0  0.095 0 0  0.09600000000000002 0 0  0.09700000000000002 0 0  0.098 0 0  0.099 0 0  0.1 0 0  </DataArray>
</Points>
<Cells>
<DataArray  type="UInt32"  Name="connectivity"  format="ascii">0 1  1 2  2 3  3 4  4 5  5 6  6 7  7 8  8 9  9 10  10 11  11 12  12 13  13 14  14 15  15 16  16 17  17 18  18 19  19 20  20 21  21 22  22 23  23 24  24 25  25 26  26 27  27 28  28 29  29 30  30 31  31 32  32 33  33 34  34 35  35 36  36 37  37 38  38 39  39 40  40 41  41 42  42 43  43 44  44 45  45 46  46 47  47 48  48 49  49 50  50 51  51 52  52 53  53 54  54 55  55 56  56 57  57 58  58 59  59 60  60 61  61 62  62 63  63 64  64 65  65 66  66 67  67 68  68 69  69 70  70 71  71 72  72 73  73 74  74 75  75 76  76 77  77 78  78 79  79 80  80 81  81 82  82 83  83 84  84 85  85 86  86 87  87 88  88 89  89 90  90 91  91 92  92 93  93 94  94 95  95 96  96 97  97 98  98 99  99 100  </DataArray>
<DataArray  type="UInt32"  Name="offsets"  format="ascii">2 4 6 8 10 12 14 16 18 20 22 24 26 28 30 32 34 36 38 40 42 44 46 48 50 52 54 56 58 60 62 64 66 68 70 72 74 76 78 80 82 84 86 88 90 92 94 96 98 100 102 104 106 108 110 112 114 116 118 120 122 124 126 128 130 132 134 136 138 140 142 144 146 148 150 152 154 156 158 160 162 164 166 168 170 172 174 176 178 180 182 184 186 188 190 192 194 196 198 200 </DataArray>
<DataArray  type="UInt8"  Name="types"  format="ascii">3 3 3 3 3 3 3 3 3 3 3 3 3 3 3 3 3 3 3 3 3 3 3 3 3 3 3 3 3 3 3 3 3 3 3 3 3 3 3 3 3 3 3 3 3 3 3 3 3 3 3 3 3 3 3 3 3 3 3 3 3 3 3 3 3 3 3 3 3 3 3 3 3 3 3 3 3 3 3 3 3 3 3 3 3 3 3 3 3 3 3 3 3 3 3 3 3 3 3 3 </DataArray>
</Cells>
<PointData  Scalars="f_14"> 
<DataArray  type="Float64"  Name="f_14"  format="ascii">1.1461323858064687e-05  1.1712941605186548e-05  1.2476847196094694e-05  1.3780443661393024e-05  1.5670226758306208e-05  1.8213035382922154e-05  2.1497830867075710e-05  2.5638033907574645e-05  3.0774456117453615e-05  3.7078871431967676e-05  4.4758280823956050e-05  5.4059931948592210e-05  6.5277163395430871e-05  7.8756151107445244e-05  9.4903642144148547e-05  1.1419576820921828e-04  1.3718803809966313e-04  1.6452661430673622e-04  1.9696098422686701e-04  2.3535814061702339e-04  2.8071838882140737e-04  3.3419289964958104e-04  3.9710312632213558e-04  4.7096220132136117e-04  5.5749842397740290e-04  6.5868094185987094e-04  7.7674771819959284e-04  9.1423586330463080e-04  1.0740143899369762e-03  1.2593194305771044e-03  1.4737919281462210e-03  1.7215177808425953e-03  2.0070703860916462e-03  2.3355554880856036e-03  2.7126581879501678e-03  3.1446919252652223e-03  3.6386491846299319e-03  4.2022536214610133e-03  4.8440132376359720e-03  5.5732741704684185e-03  6.4002745885049853e-03  7.3361981155915541e-03  8.3932261315556120e-03  9.5845882248358390e-03  1.0924610000755008e-02  1.2428757380323679e-02  1.4113676460056443e-02  1.5997227944973876e-02  1.8098515116544565e-02  2.0437904256644737e-02  2.3037036419576939e-02  2.5918829428677553e-02  2.9107468973909659e-02  3.2628387703835054e-02  3.6508231241112035e-02  4.0774810106604088e-02  4.5457036614502927e-02  5.0584845900465407e-02  5.6189100367201650e-02  6.2301476977390371e-02  6.8954336991988247e-02  7.6180577942192990e-02  8.4013467834300304e-02  9.2486461816703835e-02  1.0163300178504557e-01  1.1148629966224170e-01  1.2207910536145142e-01  1.3344346071824265e-01  1.4561044095898990e-01  1.5860988555129427e-01  1.7247012055400263e-01  1.8721767484404719e-01  2.0287699283951446e-01  2.1947014655773051e-01  2.3701655003844599e-01  2.5553267932033630e-01  2.7503180127923427e-01  2.9552371471444966e-01  3.1701450710145346e-01  3.3950633041194717e-01  3.6299719933365926e-01  3.8748081510052523e-01  4.1294641796878506e-01  4.3937867114635054e-01  4.6675757870310380e-01  4.9505843966107493e-01  5.2425184008935077e-01  5.5430368461359913e-01  5.8517526829983069e-01  6.1682338939285686e-01  6.4920050288892162e-01  6.8225491440707020e-01  7.1593101330313447e-01  7.5016954345244602e-01  7.8490790962120749e-01  8.2008051686064187e-01  8.5561913990107497e-01  8.9145331910315018e-01  9.2751077914794100e-01  9.6371786632367085e-01  1.0000000000000000e+00  </DataArray> 
</PointData> 
</Piece>
</UnstructuredGrid>
</VTKFile>