<?xml version="1.0"?>
<VTKFile type="UnstructuredGrid"  version="0.1"  >
<UnstructuredGrid>
<Piece  NumberOfPoints="101" NumberOfCells="100">
<Points>
<DataArray  type="Float64"  NumberOfComponents="3"  format="ascii">0 0 0  0.001 0 0  0.002 0 0  0.003 0 0  0.004 0 0  0.005 0 0  0.006000000000000001 0 0  0.007000000000000001 0 0  0.008 0 0  0.009000000000000001 0 0  0.01 0 0  0.011 0 0  0.012 0 0  0.013 0 0  0.014 0 0  0.015 0 0  0.016 0 0  0.017 0 0  0.018 0 0  0.019 0 0  0.02 0 0  0.021 0 0  0.022 0 0  0.023 0 0  0.024 0 0  0.025 0 0  0.026 0 0  0.027 0 0  0.028 0 0  0.029 0 0  0.03 0 0  0.031 0 0  0.032 0 0  0.033 0 0  0.034 0 0  0.035 0 0  0.036 0 0  0.03700000000000001 0 0  0.03800000000000001 0 0  0.03900000000000001 0 0  0.04 0 0  0.04100000000000001 0 0  0.042 0 0  0.043 0 0  0.044 0 0  0.045 0 0  0.04600000000000001 0 0  0.047 0 0  0.04800000000000001 0 0  0.049 0 0  0.05 0 0  0.051 0 0  0.052 0 0  0.05300000000000001 0 0  0.05400000000000001 0 0  0.055 0 0  0.05600000000000001 0 0  0.057 0 0  0.05800000000000001 0 0  0.059 0 0  0.06 0 0  0.06100000000000001 0 0  0.062 0 0  0.063 0 0  0.064 0 0  0.065 0 0  0.066 0 0  0.067 0 0  0.068 0 0  0.06900000000000001 0 0  0.07000000000000001 0 0  0.07100000000000001 0 0  0.07200000000000001 0 0  0.07300000000000001 0 0  0.07400000000000001 0 0  0.075 0 0  0.07600000000000001 0 0  0.077 0 0  0.07800000000000001 0 0  0.079 0 0  0.08 0 0  0.081 0 0  0.08200000000000002 0 0  0.083 0 0  0.08400000000000001 0 0  0.08500000000000001 0 0  0.08599999999999999 0 0  0.08700000000000001 0 0  0.08800000000000001 0 0  0.08900000000000001 0 0  0.09 0 0  0.091 0 0  0.09200000000000001 0 0  0.09300000000000001 0 0  0.094 0 0  0.095 0 0  0.09600000000000002 0 0  0.09700000000000002 0 0  0.098 0 0  0.099 0 0  0.1 0 0  </DataArray>
</Points>
<Cells>
<DataArray  type="UInt32"  Name="connectivity"  format="ascii">0 1  1 2  2 3  3 4  4 5  5 6  6 7  7 8  8 9  9 10  10 11  11 12  12 13  13 14  14 15  15 16  16 17  17 18  18 19  19 20  20 21  21 22  22 23  23 24  24 25  25 26  26 27  27 28  28 29  29 30  30 31  31 32  32 33  33 34  34 35  35 36  36 37  37 38  38 39  39 40  40 41  41 42  42 43  43 44  44 45  45 46  46 47  47 48  48 49  49 50  50 51  51 52  52 53  53 54  54 55  55 56  56 57  57 58  58 59  59 60  60 61  61 62  62 63  63 64  64 65  65 66  66 67  67 68  68 69  69 70  70 71  71 72  72 73  73 74  74 75  75 76  76 77  77 78  78 79  79 80  80 81  81 82  82 83  83 84  84 85  85 86  86 87  87 88  88 89  89 90  90 91  91 92  92 93  93 94  94 95  95 96  96 97  97 98  98 99  99 100  </DataArray>
<DataArray  type="UInt32"  Name="offsets"  format="ascii">2 4 6 8 10 12 14 16 18 20 22 24 26 28 30 32 34 36 38 40 42 44 46 48 50 52 54 56 58 60 62 64 66 68 70 72 74 76 78 80 82 84 86 88 90 92 94 96 98 100 102 104 106 108 110 112 114 116 118 120 122 124 126 128 130 132 134 136 138 140 142 144 146 148 150 152 154 156 158 160 162 164 166 168 170 172 174 176 178 180 182 184 186 188 190 192 194 196 198 200 </DataArray>
<DataArray  type="UInt8"  Name="types"  format="ascii">3 3 3 3 3 3 3 3 3 3 3 3 3 3 3 3 3 3 3 3 3 3 3 3 3 3 3 3 3 3 3 3 3 3 3 3 3 3 3 3 3 3 3 3 3 3 3 3 3 3 3 3 3 3 3 3 3 3 3 3 3 3 3 3 3 3 3 3 3 3 3 3 3 3 3 3 3 3 3 3 3 3 3 3 3 3 3 3 3 3 3 3 3 3 3 3 3 3 3 3 </DataArray>
</Cells>
<PointData  Scalars="f_14"> 
<DataArray  type="Float64"  Name="f_14"  format="ascii">4.2954984724163163e-11  4.7211908550222753e-11  6.0756749789004685e-11  8.6039144117006990e-11  1.2758521302030363e-10  1.9273025572716922e-10  2.9278844434917127e-10  4.4482473506293539e-10  6.7427425748054624e-10  1.0187635926699452e-09  1.5336384352903429e-09  2.2999088107546626e-09  3.4356070170646700e-09  5.1119421756255544e-09  7.5761647283635524e-09  1.1183771499456482e-08  1.6443648193307667e-08  2.4081040246871649e-08  3.5124965626992009e-08  5.1028962424306346e-08  7.3837060979767702e-08  1.0641078567352197e-07  1.5273807370741280e-07  2.1835155115480939e-07  3.1089199845023035e-07  4.4086350955098346e-07  6.2264032364485913e-07  8.7580219614400181e-07  1.2268961804570052e-06  1.7117486116876831e-06  2.3784828066767898e-06  3.2914364905553914e-06  4.5362192577478892e-06  6.2262055344723832e-06  8.5108235745787836e-06  1.1586076959150655e-05  1.5707822694367906e-05  2.1208429865780285e-05  2.8517555083288553e-05  3.8187895285132114e-05  5.0926913810746521e-05  6.7635680068623728e-05  8.9456113600377401e-05  1.1782807557111726e-04  1.5455789890438963e-04  2.0190008496278117e-04  2.6265401057556920e-04  3.4027757315903217e-04  4.3901974059271852e-04  5.6407395154571842e-04  7.2175421468298083e-04  9.1969556406801972e-04  1.1670802249956244e-03  1.4748904115293796e-03  1.8561880974705557e-03  2.3264213620045339e-03  2.9037559992421409e-03  3.6094299919015630e-03  4.4681271848703704e-03  5.5083650641446014e-03  6.7628899703566512e-03  8.2690713846613282e-03  1.0069285161212051e-02  1.2211273800574246e-02  1.4748470130551488e-02  1.7740269165222842e-02  2.1252231539884779e-02  2.5356200867133367e-02  3.0130316729847218e-02  3.5658904922616967e-02  4.2032227071307070e-02  4.9346072987076953e-02  5.7701181115351621e-02  6.7202475267526082e-02  7.7958109489763991e-02  9.0078317410405229e-02  1.0367406765733869e-01  1.1885553284928839e-01  1.3573038609738591e-01  1.5440194572087459e-01  1.7496719576047887e-01  1.9751471660987235e-01  2.2212256640157199e-01  2.4885615938757705e-01  2.7776619215667087e-01  3.0888667185326923e-01  3.4223310236006488e-01  3.7780088447518223e-01  4.1556398430836455e-01  4.5547392036334294e-01  4.9745911406663690e-01  5.4142464093245268e-01  5.8725241029021291e-01  6.3480179079974586e-01  6.8391068716880765e-01  7.3439706096195168e-01  7.8606087559065962e-01  8.3868643297356726e-01  8.9204505743253470e-01  9.4589807161142303e-01  1.0000000000000000e+00  </DataArray> 
</PointData> 
</Piece>
</UnstructuredGrid>
</VTKFile>