<?xml version="1.0"?>
<VTKFile type="UnstructuredGrid"  version="0.1"  >
<UnstructuredGrid>
<Piece  NumberOfPoints="101" NumberOfCells="100">
<Points>
<DataArray  type="Float64"  NumberOfComponents="3"  format="ascii">0 0 0  0.001 0 0  0.002 0 0  0.003 0 0  0.004 0 0  0.005 0 0  0.006000000000000001 0 0  0.007000000000000001 0 0  0.008 0 0  0.009000000000000001 0 0  0.01 0 0  0.011 0 0  0.012 0 0  0.013 0 0  0.014 0 0  0.015 0 0  0.016 0 0  0.017 0 0  0.018 0 0  0.019 0 0  0.02 0 0  0.021 0 0  0.022 0 0  0.023 0 0  0.024 0 0  0.025 0 0  0.026 0 0  0.027 0 0  0.028 0 0  0.029 0 0  0.03 0 0  0.031 0 0  0.032 0 0  0.033 0 0  0.034 0 0  0.035 0 0  0.036 0 0  0.03700000000000001 0 0  0.03800000000000001 0 0  0.03900000000000001 0 0  0.04 0 0  0.04100000000000001 0 0  0.042 0 0  0.043 0 0  0.044 0 0  0.045 0 0  0.04600000000000001 0 0  0.047 0 0  0.04800000000000001 0 0  0.049 0 0  0.05 0 0  0.051 0 0  0.052 0 0  0.05300000000000001 0 0  0.05400000000000001 0 0  0.055 0 0  0.05600000000000001 0 0  0.057 0 0  0.05800000000000001 0 0  0.059 0 0  0.06 0 0  0.06100000000000001 0 0  0.062 0 0  0.063 0 0  0.064 0 0  0.065 0 0  0.066 0 0  0.067 0 0  0.068 0 0  0.06900000000000001 0 0  0.07000000000000001 0 0  0.07100000000000001 0 0  0.07200000000000001 0 0  0.07300000000000001 0 0  0.07400000000000001 0 0  0.075 0 0  0.07600000000000001 0 0  0.077 0 0  0.07800000000000001 0 0  0.079 0 0  0.08 0 0  0.081 0 0  0.08200000000000002 0 0  0.083 0 0  0.08400000000000001 0 0  0.08500000000000001 0 0  0.08599999999999999 0 0  0.08700000000000001 0 0  0.08800000000000001 0 0  0.08900000000000001 0 0  0.09 0 0  0.091 0 0  0.09200000000000001 0 0  0.09300000000000001 0 0  0.094 0 0  0.095 0 0  0.09600000000000002 0 0  0.09700000000000002 0 0  0.098 0 0  0.099 0 0  0.1 0 0  </DataArray>
</Points>
<Cells>
<DataArray  type="UInt32"  Name="connectivity"  format="ascii">0 1  1 2  2 3  3 4  4 5  5 6  6 7  7 8  8 9  9 10  10 11  11 12  12 13  13 14  14 15  15 16  16 17  17 18  18 19  19 20  20 21  21 22  22 23  23 24  24 25  25 26  26 27  27 28  28 29  29 30  30 31  31 32  32 33  33 34  34 35  35 36  36 37  37 38  38 39  39 40  40 41  41 42  42 43  43 44  44 45  45 46  46 47  47 48  48 49  49 50  50 51  51 52  52 53  53 54  54 55  55 56  56 57  57 58  58 59  59 60  60 61  61 62  62 63  63 64  64 65  65 66  66 67  67 68  68 69  69 70  70 71  71 72  72 73  73 74  74 75  75 76  76 77  77 78  78 79  79 80  80 81  81 82  82 83  83 84  84 85  85 86  86 87  87 88  88 89  89 90  90 91  91 92  92 93  93 94  94 95  95 96  96 97  97 98  98 99  99 100  </DataArray>
<DataArray  type="UInt32"  Name="offsets"  format="ascii">2 4 6 8 10 12 14 16 18 20 22 24 26 28 30 32 34 36 38 40 42 44 46 48 50 52 54 56 58 60 62 64 66 68 70 72 74 76 78 80 82 84 86 88 90 92 94 96 98 100 102 104 106 108 110 112 114 116 118 120 122 124 126 128 130 132 134 136 138 140 142 144 146 148 150 152 154 156 158 160 162 164 166 168 170 172 174 176 178 180 182 184 186 188 190 192 194 196 198 200 </DataArray>
<DataArray  type="UInt8"  Name="types"  format="ascii">3 3 3 3 3 3 3 3 3 3 3 3 3 3 3 3 3 3 3 3 3 3 3 3 3 3 3 3 3 3 3 3 3 3 3 3 3 3 3 3 3 3 3 3 3 3 3 3 3 3 3 3 3 3 3 3 3 3 3 3 3 3 3 3 3 3 3 3 3 3 3 3 3 3 3 3 3 3 3 3 3 3 3 3 3 3 3 3 3 3 3 3 3 3 3 3 3 3 3 3 </DataArray>
</Cells>
<PointData  Scalars="f_14"> 
<DataArray  type="Float64"  Name="f_14"  format="ascii">5.5270302531100670e-06  5.6649206760907162e-06  6.0843059233889397e-06  6.8025114203745156e-06  7.8490283962713646e-06  9.2664507886340185e-06  1.1111814240375947e-05  1.3458364708559443e-05  1.6397792324756121e-05  2.0042974441088385e-05  2.4531280280509799e-05  3.0028498287391178e-05  3.6733456131801440e-05  4.4883412325915887e-05  5.4760307510119972e-05  6.6697972581760288e-05  8.1090399866477804e-05  9.8401192336729045e-05  1.1917431429908106e-04  1.4404627480240075e-04  1.7375988202961561e-04  2.0917971285709118e-04  2.5130944629285333e-04  3.0131121229780723e-04  3.6052710817935997e-04  4.3050303292063496e-04  5.1301498504080696e-04  6.1009796142255548e-04  7.2407758252767990e-04  8.5760455308373407e-04  1.0136920462018916e-03  1.1957560725368080e-03  1.4076588641137608e-03  1.6537552644665528e-03  1.9389420724571513e-03  2.2687102363751930e-03  2.6491997375362188e-03  3.0872569386295543e-03  3.5904941016711807e-03  4.1673507039174957e-03  4.8271560979970618e-03  5.5801929755207955e-03  6.4377610024480983e-03  7.4122399006503843e-03  8.5171511547817592e-03  9.7672174283267559e-03  1.1178418679354426e-02  1.2768043877085062e-02  1.4554737137084141e-02  1.6558537018111285e-02  1.8800907659885437e-02  2.1304760390875602e-02  2.4094464401338118e-02  2.7195845061817627e-02  3.0636168473761563e-02  3.4444110869165274e-02  3.8649711532446937e-02  4.3284308001927181e-02  4.8380452421868801e-02  5.3971808060061854e-02  6.0093025180961976e-02  6.6779595670324710e-02  7.4067686043425951e-02  8.1993948733890917e-02  9.0595311851717569e-02  9.9908747914370585e-02  1.0997102239015318e-01  1.2081842324402439e-01  1.3248647303748903e-01  1.4500962550035842e-01  1.5842094885671495e-01  1.7275179854347422e-01  1.8803148230034802e-01  2.0428692092736198e-01  2.2154230829291502e-01  2.3981877442431745e-01  2.5913405571673936e-01  2.7950217644889946e-01  3.0093314588868891e-01  3.2343267530401881e-01  3.4700191915942757e-01  3.7163724467422099e-01  3.9733003374148990e-01  4.2406652095874420e-01  4.5182767120126305e-01  4.8058909978105441e-01  5.1032103778167992e-01  5.4098834464761092e-01  5.7255056954322348e-01  6.0496206238932726e-01  6.3817213484361301e-01  6.7212527082617390e-01  7.0676138551346934e-01  7.4201613104564879e-01  7.7782124652515638e-01  8.1410494924122057e-01  8.5079236344718001e-01  8.8780598245715003e-01  9.2506615932597647e-01  9.6249162094156548e-01  1.0000000000000000e+00  </DataArray> 
</PointData> 
</Piece>
</UnstructuredGrid>
</VTKFile>