<?xml version="1.0"?>
<VTKFile type="UnstructuredGrid"  version="0.1"  >
<UnstructuredGrid>
<Piece  NumberOfPoints="101" NumberOfCells="100">
<Points>
<DataArray  type="Float64"  NumberOfComponents="3"  format="ascii">0 0 0  0.001 0 0  0.002 0 0  0.003 0 0  0.004 0 0  0.005 0 0  0.006000000000000001 0 0  0.007000000000000001 0 0  0.008 0 0  0.009000000000000001 0 0  0.01 0 0  0.011 0 0  0.012 0 0  0.013 0 0  0.014 0 0  0.015 0 0  0.016 0 0  0.017 0 0  0.018 0 0  0.019 0 0  0.02 0 0  0.021 0 0  0.022 0 0  0.023 0 0  0.024 0 0  0.025 0 0  0.026 0 0  0.027 0 0  0.028 0 0  0.029 0 0  0.03 0 0  0.031 0 0  0.032 0 0  0.033 0 0  0.034 0 0  0.035 0 0  0.036 0 0  0.03700000000000001 0 0  0.03800000000000001 0 0  0.03900000000000001 0 0  0.04 0 0  0.04100000000000001 0 0  0.042 0 0  0.043 0 0  0.044 0 0  0.045 0 0  0.04600000000000001 0 0  0.047 0 0  0.04800000000000001 0 0  0.049 0 0  0.05 0 0  0.051 0 0  0.052 0 0  0.05300000000000001 0 0  0.05400000000000001 0 0  0.055 0 0  0.05600000000000001 0 0  0.057 0 0  0.05800000000000001 0 0  0.059 0 0  0.06 0 0  0.06100000000000001 0 0  0.062 0 0  0.063 0 0  0.064 0 0  0.065 0 0  0.066 0 0  0.067 0 0  0.068 0 0  0.06900000000000001 0 0  0.07000000000000001 0 0  0.07100000000000001 0 0  0.07200000000000001 0 0  0.07300000000000001 0 0  0.07400000000000001 0 0  0.075 0 0  0.07600000000000001 0 0  0.077 0 0  0.07800000000000001 0 0  0.079 0 0  0.08 0 0  0.081 0 0  0.08200000000000002 0 0  0.083 0 0  0.08400000000000001 0 0  0.08500000000000001 0 0  0.08599999999999999 0 0  0.08700000000000001 0 0  0.08800000000000001 0 0  0.08900000000000001 0 0  0.09 0 0  0.091 0 0  0.09200000000000001 0 0  0.09300000000000001 0 0  0.094 0 0  0.095 0 0  0.09600000000000002 0 0  0.09700000000000002 0 0  0.098 0 0  0.099 0 0  0.1 0 0  </DataArray>
</Points>
<Cells>
<DataArray  type="UInt32"  Name="connectivity"  format="ascii">0 1  1 2  2 3  3 4  4 5  5 6  6 7  7 8  8 9  9 10  10 11  11 12  12 13  13 14  14 15  15 16  16 17  17 18  18 19  19 20  20 21  21 22  22 23  23 24  24 25  25 26  26 27  27 28  28 29  29 30  30 31  31 32  32 33  33 34  34 35  35 36  36 37  37 38  38 39  39 40  40 41  41 42  42 43  43 44  44 45  45 46  46 47  47 48  48 49  49 50  50 51  51 52  52 53  53 54  54 55  55 56  56 57  57 58  58 59  59 60  60 61  61 62  62 63  63 64  64 65  65 66  66 67  67 68  68 69  69 70  70 71  71 72  72 73  73 74  74 75  75 76  76 77  77 78  78 79  79 80  80 81  81 82  82 83  83 84  84 85  85 86  86 87  87 88  88 89  89 90  90 91  91 92  92 93  93 94  94 95  95 96  96 97  97 98  98 99  99 100  </DataArray>
<DataArray  type="UInt32"  Name="offsets"  format="ascii">2 4 6 8 10 12 14 16 18 20 22 24 26 28 30 32 34 36 38 40 42 44 46 48 50 52 54 56 58 60 62 64 66 68 70 72 74 76 78 80 82 84 86 88 90 92 94 96 98 100 102 104 106 108 110 112 114 116 118 120 122 124 126 128 130 132 134 136 138 140 142 144 146 148 150 152 154 156 158 160 162 164 166 168 170 172 174 176 178 180 182 184 186 188 190 192 194 196 198 200 </DataArray>
<DataArray  type="UInt8"  Name="types"  format="ascii">3 3 3 3 3 3 3 3 3 3 3 3 3 3 3 3 3 3 3 3 3 3 3 3 3 3 3 3 3 3 3 3 3 3 3 3 3 3 3 3 3 3 3 3 3 3 3 3 3 3 3 3 3 3 3 3 3 3 3 3 3 3 3 3 3 3 3 3 3 3 3 3 3 3 3 3 3 3 3 3 3 3 3 3 3 3 3 3 3 3 3 3 3 3 3 3 3 3 3 3 </DataArray>
</Cells>
<PointData  Scalars="f_14"> 
<DataArray  type="Float64"  Name="f_14"  format="ascii">1.5618283196481666e-04  1.5818554793436569e-04  1.6423298591214326e-04  1.7444351465972587e-04  1.8901607899463491e-04  2.0823270101685753e-04  2.3246199345744231e-04  2.6216369636774287e-04  2.9789425098299891e-04  3.4031342676596493e-04  3.9019201926653935e-04  4.4842063742333183e-04  5.1601959918503443e-04  5.9414995374661736e-04  6.8412564718296764e-04  7.8742684572854734e-04  9.0571442730776964e-04  1.0408456470839948e-03  1.1948909766888766e-03  1.3701521093500827e-03  1.5691811142961593e-03  1.7948007135366959e-03  2.0501256423623992e-03  2.3385850416683968e-03  2.6639458154788932e-03  3.0303368708676365e-03  3.4422741398752181e-03  3.9046862640958429e-03  4.4229408024454853e-03  5.0028708013627266e-03  5.6508015444970468e-03  6.3735772760035976e-03  7.1785876681184201e-03  8.0737937799983395e-03  9.0677532311722511e-03  1.0169644289696493e-02  1.1389288552597666e-02  1.2737171874812480e-02  1.4224463183012282e-02  1.5863030792868379e-02  1.7665455832928452e-02  1.9645042365801627e-02  2.1815823788261676e-02  2.4192565086647033e-02  2.6790760523019048e-02  2.9626626331384204e-02  3.2717088012302227e-02  3.6079761828769513e-02  3.9732930126721980e-02  4.3695510130110721e-02  4.7987015893489554e-02  5.2627513134537340e-02  5.7637566714984566e-02  6.3038180590970383e-02  6.8850730112791442e-02  7.5096886619067313e-02  8.1798534341187279e-02  8.8977679710047441e-02  9.6656353237962192e-02  1.0485650423353035e-01  1.1359988869536890e-01  1.2290795082105983e-01  1.3280169865940283e-01  1.4330157452601394e-01  1.5442732089328254e-01  1.6619784255447356e-01  1.7863106594702549e-01  1.9174379660055807e-01  2.0555157574942079e-01  2.2006853721648062e-01  2.3530726573297478e-01  2.5127865790741671e-01  2.6799178709359017e-01  2.8545377343254441e-01  3.0366966035528947e-01  3.2264229883079537e-01  3.4237224062730492e-01  3.6285764182343089e-01  3.8409417775879739e-01  4.0607497055202030e-01  4.2879053023686120e-01  4.5222871047573682e-01  4.7637467970415626e-01  5.0121090844085137e-01  5.2671717336751267e-01  5.5287057864034728e-01  5.7964559474469246e-01  6.0701411504522940e-01  6.3494553001978427e-01  6.6340681899624976e-01  6.9236265904176697e-01  7.2177555048319486e-01  7.5160595837013855e-01  7.8181246902863577e-01  8.1235196069711146e-01  8.4317978708852015e-01  8.7424997258567494e-01  9.0551541765249544e-01  9.3692811293397071e-01  9.6843936042357603e-01  1.0000000000000000e+00  </DataArray> 
</PointData> 
</Piece>
</UnstructuredGrid>
</VTKFile>