<?xml version="1.0"?>
<VTKFile type="UnstructuredGrid"  version="0.1"  >
<UnstructuredGrid>
<Piece  NumberOfPoints="101" NumberOfCells="100">
<Points>
<DataArray  type="Float64"  NumberOfComponents="3"  format="ascii">0 0 0  0.001 0 0  0.002 0 0  0.003 0 0  0.004 0 0  0.005 0 0  0.006000000000000001 0 0  0.007000000000000001 0 0  0.008 0 0  0.009000000000000001 0 0  0.01 0 0  0.011 0 0  0.012 0 0  0.013 0 0  0.014 0 0  0.015 0 0  0.016 0 0  0.017 0 0  0.018 0 0  0.019 0 0  0.02 0 0  0.021 0 0  0.022 0 0  0.023 0 0  0.024 0 0  0.025 0 0  0.026 0 0  0.027 0 0  0.028 0 0  0.029 0 0  0.03 0 0  0.031 0 0  0.032 0 0  0.033 0 0  0.034 0 0  0.035 0 0  0.036 0 0  0.03700000000000001 0 0  0.03800000000000001 0 0  0.03900000000000001 0 0  0.04 0 0  0.04100000000000001 0 0  0.042 0 0  0.043 0 0  0.044 0 0  0.045 0 0  0.04600000000000001 0 0  0.047 0 0  0.04800000000000001 0 0  0.049 0 0  0.05 0 0  0.051 0 0  0.052 0 0  0.05300000000000001 0 0  0.05400000000000001 0 0  0.055 0 0  0.05600000000000001 0 0  0.057 0 0  0.05800000000000001 0 0  0.059 0 0  0.06 0 0  0.06100000000000001 0 0  0.062 0 0  0.063 0 0  0.064 0 0  0.065 0 0  0.066 0 0  0.067 0 0  0.068 0 0  0.06900000000000001 0 0  0.07000000000000001 0 0  0.07100000000000001 0 0  0.07200000000000001 0 0  0.07300000000000001 0 0  0.07400000000000001 0 0  0.075 0 0  0.07600000000000001 0 0  0.077 0 0  0.07800000000000001 0 0  0.079 0 0  0.08 0 0  0.081 0 0  0.08200000000000002 0 0  0.083 0 0  0.08400000000000001 0 0  0.08500000000000001 0 0  0.08599999999999999 0 0  0.08700000000000001 0 0  0.08800000000000001 0 0  0.08900000000000001 0 0  0.09 0 0  0.091 0 0  0.09200000000000001 0 0  0.09300000000000001 0 0  0.094 0 0  0.095 0 0  0.09600000000000002 0 0  0.09700000000000002 0 0  0.098 0 0  0.099 0 0  0.1 0 0  </DataArray>
</Points>
<Cells>
<DataArray  type="UInt32"  Name="connectivity"  format="ascii">0 1  1 2  2 3  3 4  4 5  5 6  6 7  7 8  8 9  9 10  10 11  11 12  12 13  13 14  14 15  15 16  16 17  17 18  18 19  19 20  20 21  21 22  22 23  23 24  24 25  25 26  26 27  27 28  28 29  29 30  30 31  31 32  32 33  33 34  34 35  35 36  36 37  37 38  38 39  39 40  40 41  41 42  42 43  43 44  44 45  45 46  46 47  47 48  48 49  49 50  50 51  51 52  52 53  53 54  54 55  55 56  56 57  57 58  58 59  59 60  60 61  61 62  62 63  63 64  64 65  65 66  66 67  67 68  68 69  69 70  70 71  71 72  72 73  73 74  74 75  75 76  76 77  77 78  78 79  79 80  80 81  81 82  82 83  83 84  84 85  85 86  86 87  87 88  88 89  89 90  90 91  91 92  92 93  93 94  94 95  95 96  96 97  97 98  98 99  99 100  </DataArray>
<DataArray  type="UInt32"  Name="offsets"  format="ascii">2 4 6 8 10 12 14 16 18 20 22 24 26 28 30 32 34 36 38 40 42 44 46 48 50 52 54 56 58 60 62 64 66 68 70 72 74 76 78 80 82 84 86 88 90 92 94 96 98 100 102 104 106 108 110 112 114 116 118 120 122 124 126 128 130 132 134 136 138 140 142 144 146 148 150 152 154 156 158 160 162 164 166 168 170 172 174 176 178 180 182 184 186 188 190 192 194 196 198 200 </DataArray>
<DataArray  type="UInt8"  Name="types"  format="ascii">3 3 3 3 3 3 3 3 3 3 3 3 3 3 3 3 3 3 3 3 3 3 3 3 3 3 3 3 3 3 3 3 3 3 3 3 3 3 3 3 3 3 3 3 3 3 3 3 3 3 3 3 3 3 3 3 3 3 3 3 3 3 3 3 3 3 3 3 3 3 3 3 3 3 3 3 3 3 3 3 3 3 3 3 3 3 3 3 3 3 3 3 3 3 3 3 3 3 3 3 </DataArray>
</Cells>
<PointData  Scalars="f_14"> 
<DataArray  type="Float64"  Name="f_14"  format="ascii">2.7488249117750522e-05  2.8000013748317510e-05  2.9550629871876204e-05  3.2186397670462024e-05  3.5985599650321309e-05  4.1060187627055992e-05  4.7558171792108697e-05  5.5666738970494326e-05  6.5616134662586681e-05  7.7684350732311070e-05  9.2202667595111417e-05  1.0956210639618808e-04  1.3022085286577107e-04  1.5471272019381533e-04  1.8365672326796446e-04  2.1776784083807062e-04  2.5786904546554147e-04  3.0490468332946630e-04  3.5995528692323009e-04  4.2425390320190544e-04  4.9920401763795029e-04  5.8639915070782917e-04  6.8764419735661852e-04  8.0497857176087327e-04  9.4070120902354593e-04  1.0973974620872339e-03  1.2779679159547858e-03  1.4856591220895386e-03  1.7240962334870728e-03  1.9973174952551604e-03  2.3098105165379776e-03  2.6665502172526136e-03  3.0730383074047906e-03  3.5353441178157005e-03  4.0601465590937788e-03  4.6547769408747473e-03  5.3272623360664075e-03  6.0863691254987064e-03  6.9416463075170519e-03  7.9034681052879332e-03  8.9830753526292193e-03  1.0192615087848939e-02  1.1545177735284172e-02  1.3054831206973335e-02  1.4736651213241655e-02  1.6606747032073828e-02  1.8682281954178405e-02  2.0981487594838748e-02  2.3523671246236163e-02  2.6329215436141560e-02  2.9419568861900610e-02  3.2817227883600558e-02  3.6545707788245861e-02  4.0629503078583859e-02  4.5094036096669884e-02  4.9965593363905769e-02  5.5271249106479237e-02  6.1038775537977638e-02  6.7296539589288315e-02  7.4073385909264558e-02  8.1398506107279070e-02  8.9301294369599146e-02  9.7811189754099748e-02  1.0695750565042327e-01  1.1676924708322931e-01  1.2727491673228680e-01  1.3850231074216565e-01  1.5047830559328201e-01  1.6322863750189778e-01  1.7677767600606681e-01  1.9114819357403781e-01  2.0636113323777705e-01  2.2243537640359551e-01  2.3938751312094245e-01  2.5723161719601162e-01  2.7597902861584961e-01  2.9563814579842124e-01  3.1621423020216666e-01  3.3770922581305557e-01  3.6012159597646992e-01  3.8344617995458985e-01  4.0767407146686396e-01  4.3279252131200352e-01  4.5878486597557733e-01  4.8563048389934760e-01  5.1330478082913589e-01  5.4177920537017132e-01  5.7102129556592918e-01  6.0099475698248106e-01  6.3165957242985349e-01  6.6297214308969854e-01  6.9488546045007415e-01  7.2734930807875353e-01  7.6031049190195543e-01  7.9371309730137052e-01  8.2749877100453284e-01  8.6160702542738388e-01  8.9597556283852697e-01  9.3054061645690545e-01  9.6523730537281505e-01  1.0000000000000000e+00  </DataArray> 
</PointData> 
</Piece>
</UnstructuredGrid>
</VTKFile>