<?xml version="1.0"?>
<VTKFile type="UnstructuredGrid"  version="0.1"  >
<UnstructuredGrid>
<Piece  NumberOfPoints="101" NumberOfCells="100">
<Points>
<DataArray  type="Float64"  NumberOfComponents="3"  format="ascii">0 0 0  0.001 0 0  0.002 0 0  0.003 0 0  0.004 0 0  0.005 0 0  0.006000000000000001 0 0  0.007000000000000001 0 0  0.008 0 0  0.009000000000000001 0 0  0.01 0 0  0.011 0 0  0.012 0 0  0.013 0 0  0.014 0 0  0.015 0 0  0.016 0 0  0.017 0 0  0.018 0 0  0.019 0 0  0.02 0 0  0.021 0 0  0.022 0 0  0.023 0 0  0.024 0 0  0.025 0 0  0.026 0 0  0.027 0 0  0.028 0 0  0.029 0 0  0.03 0 0  0.031 0 0  0.032 0 0  0.033 0 0  0.034 0 0  0.035 0 0  0.036 0 0  0.03700000000000001 0 0  0.03800000000000001 0 0  0.03900000000000001 0 0  0.04 0 0  0.04100000000000001 0 0  0.042 0 0  0.043 0 0  0.044 0 0  0.045 0 0  0.04600000000000001 0 0  0.047 0 0  0.04800000000000001 0 0  0.049 0 0  0.05 0 0  0.051 0 0  0.052 0 0  0.05300000000000001 0 0  0.05400000000000001 0 0  0.055 0 0  0.05600000000000001 0 0  0.057 0 0  0.05800000000000001 0 0  0.059 0 0  0.06 0 0  0.06100000000000001 0 0  0.062 0 0  0.063 0 0  0.064 0 0  0.065 0 0  0.066 0 0  0.067 0 0  0.068 0 0  0.06900000000000001 0 0  0.07000000000000001 0 0  0.07100000000000001 0 0  0.07200000000000001 0 0  0.07300000000000001 0 0  0.07400000000000001 0 0  0.075 0 0  0.07600000000000001 0 0  0.077 0 0  0.07800000000000001 0 0  0.079 0 0  0.08 0 0  0.081 0 0  0.08200000000000002 0 0  0.083 0 0  0.08400000000000001 0 0  0.08500000000000001 0 0  0.08599999999999999 0 0  0.08700000000000001 0 0  0.08800000000000001 0 0  0.08900000000000001 0 0  0.09 0 0  0.091 0 0  0.09200000000000001 0 0  0.09300000000000001 0 0  0.094 0 0  0.095 0 0  0.09600000000000002 0 0  0.09700000000000002 0 0  0.098 0 0  0.099 0 0  0.1 0 0  </DataArray>
</Points>
<Cells>
<DataArray  type="UInt32"  Name="connectivity"  format="ascii">0 1  1 2  2 3  3 4  4 5  5 6  6 7  7 8  8 9  9 10  10 11  11 12  12 13  13 14  14 15  15 16  16 17  17 18  18 19  19 20  20 21  21 22  22 23  23 24  24 25  25 26  26 27  27 28  28 29  29 30  30 31  31 32  32 33  33 34  34 35  35 36  36 37  37 38  38 39  39 40  40 41  41 42  42 43  43 44  44 45  45 46  46 47  47 48  48 49  49 50  50 51  51 52  52 53  53 54  54 55  55 56  56 57  57 58  58 59  59 60  60 61  61 62  62 63  63 64  64 65  65 66  66 67  67 68  68 69  69 70  70 71  71 72  72 73  73 74  74 75  75 76  76 77  77 78  78 79  79 80  80 81  81 82  82 83  83 84  84 85  85 86  86 87  87 88  88 89  89 90  90 91  91 92  92 93  93 94  94 95  95 96  96 97  97 98  98 99  99 100  </DataArray>
<DataArray  type="UInt32"  Name="offsets"  format="ascii">2 4 6 8 10 12 14 16 18 20 22 24 26 28 30 32 34 36 38 40 42 44 46 48 50 52 54 56 58 60 62 64 66 68 70 72 74 76 78 80 82 84 86 88 90 92 94 96 98 100 102 104 106 108 110 112 114 116 118 120 122 124 126 128 130 132 134 136 138 140 142 144 146 148 150 152 154 156 158 160 162 164 166 168 170 172 174 176 178 180 182 184 186 188 190 192 194 196 198 200 </DataArray>
<DataArray  type="UInt8"  Name="types"  format="ascii">3 3 3 3 3 3 3 3 3 3 3 3 3 3 3 3 3 3 3 3 3 3 3 3 3 3 3 3 3 3 3 3 3 3 3 3 3 3 3 3 3 3 3 3 3 3 3 3 3 3 3 3 3 3 3 3 3 3 3 3 3 3 3 3 3 3 3 3 3 3 3 3 3 3 3 3 3 3 3 3 3 3 3 3 3 3 3 3 3 3 3 3 3 3 3 3 3 3 3 3 </DataArray>
</Cells>
<PointData  Scalars="f_14"> 
<DataArray  type="Float64"  Name="f_14"  format="ascii">1.1869365133249856e-03  1.1957875447950674e-03  1.2224323924797200e-03  1.2671467626893379e-03  1.3303916521145607e-03  1.4128155696576581e-03  1.5152576320741479e-03  1.6387515183517065e-03  1.7845302632351133e-03  1.9540318656348123e-03  2.1489056828053925e-03  2.3710195761252966e-03  2.6224677690316485e-03  2.9055793721504148e-03  3.2229275249043470e-03  3.5773390968775855e-03  3.9719048859718168e-03  4.4099902439167235e-03  4.8952460530174808e-03  5.4316199711620956e-03  6.0233678551078586e-03  6.6750652649634531e-03  7.3916189456344119e-03  8.1782781738657245e-03  9.0406458524658010e-03  9.9846892264079928e-03  1.1016750088863971e-02  1.2143554338918901e-02  1.3372220746849725e-02  1.4710268777517370e-02  1.6165625317739862e-02  1.7746630149586658e-02  1.9462040008478336e-02  2.1321031062904866e-02  2.3333199651602594e-02  2.5508561114267435e-02  2.7857546553436613e-02  3.0390997368145805e-02  3.3120157404458714e-02  3.6056662574056098e-02  3.9212527799837964e-02  4.2600131156996783e-02  4.6232195089309001e-02  5.0121764593500054e-02  5.4282182279472971e-02  5.8727060230953497e-02  6.3470248609662480e-02  6.8525800966430239e-02  7.3907936244653943e-02  7.9630997485056670e-02  8.5709407265734769e-02  9.2157619937814267e-02  9.8990070744528258e-02  1.0622112193996687e-01  1.1386500605293573e-01  1.2193576647104565e-01  1.3044719555009163e-01  1.3941277048368544e-01  1.4884558719769903e-01  1.5875829256303892e-01  1.6916301524831145e-01  1.8007129556070811e-01  1.9149401464864121e-01  2.0344132346294955e-01  2.1592257189455724e-01  2.2894623852500495e-01  2.4251986144196480e-01  2.5664997058443118e-01  2.7134202209148361e-01  2.8660033513410477e-01  3.0242803171130866e-01  3.1882697988960812e-01  3.3579774095849541e-01  3.5333952096402405e-01  3.7145012706770825e-01  3.9012592915878630e-01  4.0936182712446129e-01  4.2915122415511203e-01  4.4948600642981196e-01  4.7035652949192519e-01  4.9175161158538372e-01  5.1365853417964624e-01  5.3606304986572140e-01  5.5894939775727193e-01  5.8230032648016983e-01  6.0609712478130939e-01  6.3031965973352755e-01  6.5494642245856327e-01  6.7995458123464225e-01  7.0532004180003316e-01  7.3101751460925546e-01  7.5702058874515399e-01  7.8330181213822037e-01  8.0983277769492967e-01  8.3658421488993584e-01  8.6352608633320638e-01  8.9062768878305776e-01  9.1785775803996694e-01  9.4518457712436021e-01  9.7257608711466248e-01  1.0000000000000000e+00  </DataArray> 
</PointData> 
</Piece>
</UnstructuredGrid>
</VTKFile>