<?xml version="1.0"?>
<VTKFile type="UnstructuredGrid"  version="0.1"  >
<UnstructuredGrid>
<Piece  NumberOfPoints="101" NumberOfCells="100">
<Points>
<DataArray  type="Float64"  NumberOfComponents="3"  format="ascii">0 0 0  0.001 0 0  0.002 0 0  0.003 0 0  0.004 0 0  0.005 0 0  0.006000000000000001 0 0  0.007000000000000001 0 0  0.008 0 0  0.009000000000000001 0 0  0.01 0 0  0.011 0 0  0.012 0 0  0.013 0 0  0.014 0 0  0.015 0 0  0.016 0 0  0.017 0 0  0.018 0 0  0.019 0 0  0.02 0 0  0.021 0 0  0.022 0 0  0.023 0 0  0.024 0 0  0.025 0 0  0.026 0 0  0.027 0 0  0.028 0 0  0.029 0 0  0.03 0 0  0.031 0 0  0.032 0 0  0.033 0 0  0.034 0 0  0.035 0 0  0.036 0 0  0.03700000000000001 0 0  0.03800000000000001 0 0  0.03900000000000001 0 0  0.04 0 0  0.04100000000000001 0 0  0.042 0 0  0.043 0 0  0.044 0 0  0.045 0 0  0.04600000000000001 0 0  0.047 0 0  0.04800000000000001 0 0  0.049 0 0  0.05 0 0  0.051 0 0  0.052 0 0  0.05300000000000001 0 0  0.05400000000000001 0 0  0.055 0 0  0.05600000000000001 0 0  0.057 0 0  0.05800000000000001 0 0  0.059 0 0  0.06 0 0  0.06100000000000001 0 0  0.062 0 0  0.063 0 0  0.064 0 0  0.065 0 0  0.066 0 0  0.067 0 0  0.068 0 0  0.06900000000000001 0 0  0.07000000000000001 0 0  0.07100000000000001 0 0  0.07200000000000001 0 0  0.07300000000000001 0 0  0.07400000000000001 0 0  0.075 0 0  0.07600000000000001 0 0  0.077 0 0  0.07800000000000001 0 0  0.079 0 0  0.08 0 0  0.081 0 0  0.08200000000000002 0 0  0.083 0 0  0.08400000000000001 0 0  0.08500000000000001 0 0  0.08599999999999999 0 0  0.08700000000000001 0 0  0.08800000000000001 0 0  0.08900000000000001 0 0  0.09 0 0  0.091 0 0  0.09200000000000001 0 0  0.09300000000000001 0 0  0.094 0 0  0.095 0 0  0.09600000000000002 0 0  0.09700000000000002 0 0  0.098 0 0  0.099 0 0  0.1 0 0  </DataArray>
</Points>
<Cells>
<DataArray  type="UInt32"  Name="connectivity"  format="ascii">0 1  1 2  2 3  3 4  4 5  5 6  6 7  7 8  8 9  9 10  10 11  11 12  12 13  13 14  14 15  15 16  16 17  17 18  18 19  19 20  20 21  21 22  22 23  23 24  24 25  25 26  26 27  27 28  28 29  29 30  30 31  31 32  32 33  33 34  34 35  35 36  36 37  37 38  38 39  39 40  40 41  41 42  42 43  43 44  44 45  45 46  46 47  47 48  48 49  49 50  50 51  51 52  52 53  53 54  54 55  55 56  56 57  57 58  58 59  59 60  60 61  61 62  62 63  63 64  64 65  65 66  66 67  67 68  68 69  69 70  70 71  71 72  72 73  73 74  74 75  75 76  76 77  77 78  78 79  79 80  80 81  81 82  82 83  83 84  84 85  85 86  86 87  87 88  88 89  89 90  90 91  91 92  92 93  93 94  94 95  95 96  96 97  97 98  98 99  99 100  </DataArray>
<DataArray  type="UInt32"  Name="offsets"  format="ascii">2 4 6 8 10 12 14 16 18 20 22 24 26 28 30 32 34 36 38 40 42 44 46 48 50 52 54 56 58 60 62 64 66 68 70 72 74 76 78 80 82 84 86 88 90 92 94 96 98 100 102 104 106 108 110 112 114 116 118 120 122 124 126 128 130 132 134 136 138 140 142 144 146 148 150 152 154 156 158 160 162 164 166 168 170 172 174 176 178 180 182 184 186 188 190 192 194 196 198 200 </DataArray>
<DataArray  type="UInt8"  Name="types"  format="ascii">3 3 3 3 3 3 3 3 3 3 3 3 3 3 3 3 3 3 3 3 3 3 3 3 3 3 3 3 3 3 3 3 3 3 3 3 3 3 3 3 3 3 3 3 3 3 3 3 3 3 3 3 3 3 3 3 3 3 3 3 3 3 3 3 3 3 3 3 3 3 3 3 3 3 3 3 3 3 3 3 3 3 3 3 3 3 3 3 3 3 3 3 3 3 3 3 3 3 3 3 </DataArray>
</Cells>
<PointData  Scalars="f_14"> 
<DataArray  type="Float64"  Name="f_14"  format="ascii">6.5567104097104191e-05  6.6588619732833526e-05  6.9678191723473570e-05  7.4911319423361881e-05  8.2415251883780031e-05  9.2371123903039643e-05  1.0501696806865510e-04  1.2065162402106925e-04  1.3963957173946694e-04  1.6241672084169468e-04  1.8949719260855278e-04  2.2148113558902608e-04  2.5906361911316733e-04  3.0304465172343030e-04  3.5434037331771509e-04  4.1399547055738593e-04  4.8319686470561172e-04  5.6328871939653009e-04  6.5578881276278039e-04  7.6240631373630167e-04  8.8506099605520664e-04  1.0259039154326413e-03  1.1873395653537720e-03  1.3720495149571067e-03  1.5830175183331734e-03  1.8235560682626016e-03  2.0973343488647194e-03  2.4084075208118446e-03  2.7612472496899966e-03  3.1607733627962804e-03  3.6123864922399068e-03  4.1220015327856387e-03  4.6960817116222381e-03  5.3416730343835159e-03  6.0664388375800326e-03  6.8786941424575738e-03  7.7874394695846049e-03  8.8023937376447720e-03  9.9340258344898184e-03  1.1193584414066806e-02  1.2593125439996982e-02  1.4145536966025683e-02  1.5864560615995987e-02  1.7764809202171411e-02  1.9861779901409950e-02  2.2171862394656253e-02  2.4712341367245354e-02  2.7501392766360832e-02  3.0558073218395557e-02  3.3902302023597813e-02  3.7554835168873736e-02  4.1537230832479191e-02  4.5871805897012105e-02  5.0581583039909894e-02  5.5690228033750185e-02  6.1221976962063836e-02  6.7201553139959527e-02  7.3654073622304375e-02  8.0604945285004378e-02  8.8079750576365884e-02  9.6104123154714616e-02  1.0470361375427793e-01  1.1390354675252939e-01  1.2372886804725777e-01  1.3420398498890548e-01  1.4535259925142302e-01  1.5719753366104880e-01  1.6976055413500096e-01  1.8306218800892082e-01  1.9712154015085068e-01  2.1195610836836654e-01  2.2758159971204750e-01  2.4401174936064562e-01  2.6125814383912399e-01  2.7933005036831615e-01  2.9823425417266419e-01  3.1797490557890301e-01  3.3855337872249947e-01  3.5996814363930946e-01  3.8221465345669919e-01  4.0528524831121243e-01  4.2916907750885713e-01  4.5385204130993662e-01  4.7931675356395936e-01  5.0554252624298357e-01  5.3250537672548492e-01  5.6017805846966806e-01  5.8853011548747991e-01  6.1752796079122652e-01  6.4713497873669834e-01  6.7731165093325563e-01  7.0801570513594325e-01  7.3920228628082651e-01  7.7082414857605008e-01  8.0283186732112533e-01  8.3517406889920875e-01  8.6779767717500877e-01  9.0064817433762734e-01  9.3366987405604718e-01  9.6680620466771017e-01  1.0000000000000000e+00  </DataArray> 
</PointData> 
</Piece>
</UnstructuredGrid>
</VTKFile>