<?xml version="1.0"?>
<VTKFile type="UnstructuredGrid"  version="0.1"  >
<UnstructuredGrid>
<Piece  NumberOfPoints="101" NumberOfCells="100">
<Points>
<DataArray  type="Float64"  NumberOfComponents="3"  format="ascii">0 0 0  0.001 0 0  0.002 0 0  0.003 0 0  0.004 0 0  0.005 0 0  0.006000000000000001 0 0  0.007000000000000001 0 0  0.008 0 0  0.009000000000000001 0 0  0.01 0 0  0.011 0 0  0.012 0 0  0.013 0 0  0.014 0 0  0.015 0 0  0.016 0 0  0.017 0 0  0.018 0 0  0.019 0 0  0.02 0 0  0.021 0 0  0.022 0 0  0.023 0 0  0.024 0 0  0.025 0 0  0.026 0 0  0.027 0 0  0.028 0 0  0.029 0 0  0.03 0 0  0.031 0 0  0.032 0 0  0.033 0 0  0.034 0 0  0.035 0 0  0.036 0 0  0.03700000000000001 0 0  0.03800000000000001 0 0  0.03900000000000001 0 0  0.04 0 0  0.04100000000000001 0 0  0.042 0 0  0.043 0 0  0.044 0 0  0.045 0 0  0.04600000000000001 0 0  0.047 0 0  0.04800000000000001 0 0  0.049 0 0  0.05 0 0  0.051 0 0  0.052 0 0  0.05300000000000001 0 0  0.05400000000000001 0 0  0.055 0 0  0.05600000000000001 0 0  0.057 0 0  0.05800000000000001 0 0  0.059 0 0  0.06 0 0  0.06100000000000001 0 0  0.062 0 0  0.063 0 0  0.064 0 0  0.065 0 0  0.066 0 0  0.067 0 0  0.068 0 0  0.06900000000000001 0 0  0.07000000000000001 0 0  0.07100000000000001 0 0  0.07200000000000001 0 0  0.07300000000000001 0 0  0.07400000000000001 0 0  0.075 0 0  0.07600000000000001 0 0  0.077 0 0  0.07800000000000001 0 0  0.079 0 0  0.08 0 0  0.081 0 0  0.08200000000000002 0 0  0.083 0 0  0.08400000000000001 0 0  0.08500000000000001 0 0  0.08599999999999999 0 0  0.08700000000000001 0 0  0.08800000000000001 0 0  0.08900000000000001 0 0  0.09 0 0  0.091 0 0  0.09200000000000001 0 0  0.09300000000000001 0 0  0.094 0 0  0.095 0 0  0.09600000000000002 0 0  0.09700000000000002 0 0  0.098 0 0  0.099 0 0  0.1 0 0  </DataArray>
</Points>
<Cells>
<DataArray  type="UInt32"  Name="connectivity"  format="ascii">0 1  1 2  2 3  3 4  4 5  5 6  6 7  7 8  8 9  9 10  10 11  11 12  12 13  13 14  14 15  15 16  16 17  17 18  18 19  19 20  20 21  21 22  22 23  23 24  24 25  25 26  26 27  27 28  28 29  29 30  30 31  31 32  32 33  33 34  34 35  35 36  36 37  37 38  38 39  39 40  40 41  41 42  42 43  43 44  44 45  45 46  46 47  47 48  48 49  49 50  50 51  51 52  52 53  53 54  54 55  55 56  56 57  57 58  58 59  59 60  60 61  61 62  62 63  63 64  64 65  65 66  66 67  67 68  68 69  69 70  70 71  71 72  72 73  73 74  74 75  75 76  76 77  77 78  78 79  79 80  80 81  81 82  82 83  83 84  84 85  85 86  86 87  87 88  88 89  89 90  90 91  91 92  92 93  93 94  94 95  95 96  96 97  97 98  98 99  99 100  </DataArray>
<DataArray  type="UInt32"  Name="offsets"  format="ascii">2 4 6 8 10 12 14 16 18 20 22 24 26 28 30 32 34 36 38 40 42 44 46 48 50 52 54 56 58 60 62 64 66 68 70 72 74 76 78 80 82 84 86 88 90 92 94 96 98 100 102 104 106 108 110 112 114 116 118 120 122 124 126 128 130 132 134 136 138 140 142 144 146 148 150 152 154 156 158 160 162 164 166 168 170 172 174 176 178 180 182 184 186 188 190 192 194 196 198 200 </DataArray>
<DataArray  type="UInt8"  Name="types"  format="ascii">3 3 3 3 3 3 3 3 3 3 3 3 3 3 3 3 3 3 3 3 3 3 3 3 3 3 3 3 3 3 3 3 3 3 3 3 3 3 3 3 3 3 3 3 3 3 3 3 3 3 3 3 3 3 3 3 3 3 3 3 3 3 3 3 3 3 3 3 3 3 3 3 3 3 3 3 3 3 3 3 3 3 3 3 3 3 3 3 3 3 3 3 3 3 3 3 3 3 3 3 </DataArray>
</Cells>
<PointData  Scalars="f_14"> 
<DataArray  type="Float64"  Name="f_14"  format="ascii">8.7003764133632036e-04  8.7715567679208365e-04  8.9859227366764565e-04  9.3459538799213829e-04  9.8557989314686885e-04  1.0521299939529817e-03  1.1350025944787952e-03  1.2351316074371938e-03  1.3536331892755262e-03  1.4918118810722412e-03  1.6511676311043390e-03  1.8334036704000431e-03  2.0404352077096235e-03  2.2743989050873084e-03  2.5376630896586129e-03  2.8328386511372460e-03  3.1627905682488550e-03  3.5306500004185252e-03  3.9398268738975537e-03  4.3940228839641189e-03  4.8972448269638865e-03  5.4538181678021542e-03  6.0684007401110070e-03  6.7459964677564098e-03  7.4919689876942648e-03  8.3120550455156837e-03  9.2123775264340013e-03  1.0199457976063501e-02  1.1280228457236021e-02  1.2462042581417790e-02  1.3752685546155058e-02  1.5160383003528649e-02  1.6693808578975795e-02  1.8362089855187447e-02  2.0174812632257226e-02  2.2142023272991904e-02  2.4274228941438311e-02  2.6582395543379600e-02  2.9077943179941040e-02  3.1772738929649436e-02  3.4679086780428324e-02  3.7809714541186847e-02  4.1177757572961923e-02  4.4796739192074247e-02  4.8680547612502914e-02  5.2843409311707383e-02  5.7299858723425988e-02  6.2064704182533417e-02  6.7152990070803331e-02  7.2579955138299984e-02  7.8360987003020660e-02  8.4511572861168560e-02  9.1047246471893967e-02  9.7983531513281388e-02  1.0533588144055345e-01  1.1311961601263507e-01  1.2134985468908284e-01  1.3004144713560539e-01  1.3920890111264547e-01  1.4886630805737816e-01  1.5902726670464148e-01  1.6970480512632674e-01  1.8091130160124033e-01  1.9265840475796611e-01  2.0495695346141013e-01  2.1781689693909256e-01  2.3124721566545614e-01  2.4525584354112345e-01  2.5984959191878898e-01  2.7503407603795293e-01  2.9081364443669760e-01  3.0719131190991211e-01  3.2416869657958453e-01  3.4174596163382431e-01  3.5992176227705336e-01  3.7869319841424248e-01  3.9805577356718691e-01  4.1800336049064707e-01  4.3852817392090021e-01  4.5962075084896947e-01  4.8126993866586099e-01  5.0346289147775569e-01  5.2618507483573773e-01  5.4942027906763824e-01  5.7315064133947591e-01  5.9735667651124902e-01  6.2201731678710936e-01  6.4710996009377453e-01  6.7261052705406643e-01  6.9849352635538753e-01  7.2473212824635536e-01  7.5129824582948090e-01  7.7816262375428047e-01  8.0529493385430384e-01  8.3266387721380442e-01  8.6023729209585542e-01  8.8798226711416206e-01  9.1586525898621485e-01  9.4385221416622078e-01  9.7190869362288723e-01  1.0000000000000000e+00  </DataArray> 
</PointData> 
</Piece>
</UnstructuredGrid>
</VTKFile>