<?xml version="1.0"?>
<VTKFile type="UnstructuredGrid"  version="0.1"  >
<UnstructuredGrid>
<Piece  NumberOfPoints="101" NumberOfCells="100">
<Points>
<DataArray  type="Float64"  NumberOfComponents="3"  format="ascii">0 0 0  0.001 0 0  0.002 0 0  0.003 0 0  0.004 0 0  0.005 0 0  0.006000000000000001 0 0  0.007000000000000001 0 0  0.008 0 0  0.009000000000000001 0 0  0.01 0 0  0.011 0 0  0.012 0 0  0.013 0 0  0.014 0 0  0.015 0 0  0.016 0 0  0.017 0 0  0.018 0 0  0.019 0 0  0.02 0 0  0.021 0 0  0.022 0 0  0.023 0 0  0.024 0 0  0.025 0 0  0.026 0 0  0.027 0 0  0.028 0 0  0.029 0 0  0.03 0 0  0.031 0 0  0.032 0 0  0.033 0 0  0.034 0 0  0.035 0 0  0.036 0 0  0.03700000000000001 0 0  0.03800000000000001 0 0  0.03900000000000001 0 0  0.04 0 0  0.04100000000000001 0 0  0.042 0 0  0.043 0 0  0.044 0 0  0.045 0 0  0.04600000000000001 0 0  0.047 0 0  0.04800000000000001 0 0  0.049 0 0  0.05 0 0  0.051 0 0  0.052 0 0  0.05300000000000001 0 0  0.05400000000000001 0 0  0.055 0 0  0.05600000000000001 0 0  0.057 0 0  0.05800000000000001 0 0  0.059 0 0  0.06 0 0  0.06100000000000001 0 0  0.062 0 0  0.063 0 0  0.064 0 0  0.065 0 0  0.066 0 0  0.067 0 0  0.068 0 0  0.06900000000000001 0 0  0.07000000000000001 0 0  0.07100000000000001 0 0  0.07200000000000001 0 0  0.07300000000000001 0 0  0.07400000000000001 0 0  0.075 0 0  0.07600000000000001 0 0  0.077 0 0  0.07800000000000001 0 0  0.079 0 0  0.08 0 0  0.081 0 0  0.08200000000000002 0 0  0.083 0 0  0.08400000000000001 0 0  0.08500000000000001 0 0  0.08599999999999999 0 0  0.08700000000000001 0 0  0.08800000000000001 0 0  0.08900000000000001 0 0  0.09 0 0  0.091 0 0  0.09200000000000001 0 0  0.09300000000000001 0 0  0.094 0 0  0.095 0 0  0.09600000000000002 0 0  0.09700000000000002 0 0  0.098 0 0  0.099 0 0  0.1 0 0  </DataArray>
</Points>
<Cells>
<DataArray  type="UInt32"  Name="connectivity"  format="ascii">0 1  1 2  2 3  3 4  4 5  5 6  6 7  7 8  8 9  9 10  10 11  11 12  12 13  13 14  14 15  15 16  16 17  17 18  18 19  19 20  20 21  21 22  22 23  23 24  24 25  25 26  26 27  27 28  28 29  29 30  30 31  31 32  32 33  33 34  34 35  35 36  36 37  37 38  38 39  39 40  40 41  41 42  42 43  43 44  44 45  45 46  46 47  47 48  48 49  49 50  50 51  51 52  52 53  53 54  54 55  55 56  56 57  57 58  58 59  59 60  60 61  61 62  62 63  63 64  64 65  65 66  66 67  67 68  68 69  69 70  70 71  71 72  72 73  73 74  74 75  75 76  76 77  77 78  78 79  79 80  80 81  81 82  82 83  83 84  84 85  85 86  86 87  87 88  88 89  89 90  90 91  91 92  92 93  93 94  94 95  95 96  96 97  97 98  98 99  99 100  </DataArray>
<DataArray  type="UInt32"  Name="offsets"  format="ascii">2 4 6 8 10 12 14 16 18 20 22 24 26 28 30 32 34 36 38 40 42 44 46 48 50 52 54 56 58 60 62 64 66 68 70 72 74 76 78 80 82 84 86 88 90 92 94 96 98 100 102 104 106 108 110 112 114 116 118 120 122 124 126 128 130 132 134 136 138 140 142 144 146 148 150 152 154 156 158 160 162 164 166 168 170 172 174 176 178 180 182 184 186 188 190 192 194 196 198 200 </DataArray>
<DataArray  type="UInt8"  Name="types"  format="ascii">3 3 3 3 3 3 3 3 3 3 3 3 3 3 3 3 3 3 3 3 3 3 3 3 3 3 3 3 3 3 3 3 3 3 3 3 3 3 3 3 3 3 3 3 3 3 3 3 3 3 3 3 3 3 3 3 3 3 3 3 3 3 3 3 3 3 3 3 3 3 3 3 3 3 3 3 3 3 3 3 3 3 3 3 3 3 3 3 3 3 3 3 3 3 3 3 3 3 3 3 </DataArray>
</Cells>
<PointData  Scalars="f_14"> 
<DataArray  type="Float64"  Name="f_14"  format="ascii">3.6302937864858141e-13  4.1459614910940807e-13  5.8296160103887472e-13  9.1246975971694307e-13  1.4889395417043640e-12  2.4603100295973407e-12  4.0716692254895166e-12  6.7222274719027711e-12  1.1056287177902557e-11  1.8107031087061123e-11  2.9522194836523732e-11  4.7916154897864867e-11  7.7416209143369753e-11  1.2450558048844744e-10  1.9931732746285437e-10  3.1760965300130604e-10  5.0376513429311435e-10  7.9531984295536569e-10  1.2497652618776591e-09  1.9547071568451748e-09  3.0429538329989818e-09  4.7148001952926900e-09  7.2707537570812222e-09  1.1159322372782250e-08  1.7046395973089581e-08  2.5915398491121937e-08  3.9211014840012325e-08  5.9044241413430842e-08  8.8483193101587134e-08  1.3196306901908782e-07  1.9586061947664103e-07  2.8929422455789157e-07  4.2523134488196264e-07  6.2201191957877112e-07  9.0543079975501834e-07  1.3115663249352354e-06  1.8905977642298361e-06  2.7119239175457586e-06  3.8709813142661374e-06  5.4982659499650860e-06  7.7711902386342233e-06  1.0929559627162277e-05  1.5295633628569096e-05  2.1299945810657977e-05  2.9514297511995528e-05  4.0693610336623409e-05  5.5828620463937995e-05  7.6211718628543058e-05  1.0351857521062968e-04  1.3990852828624629e-04  1.8814703723172411e-04  2.5175379394271513e-04  3.3518031074247659e-04  4.4402093569599464e-04  5.8526124380403252e-04  7.6756757292289503e-04  1.0016210689075527e-03  1.3004989260430319e-03  1.6801045074342612e-03  2.1596466605421048e-03  2.7621667681030373e-03  3.5151098692476159e-03  4.4509335422215799e-03  5.6077451740098082e-03  7.0299547966882290e-03  8.7689269214887063e-03  1.0883610861657391e-02  1.3441125054843104e-02  1.6517267063795055e-02  2.0196917474838792e-02  2.4574303080780052e-02  2.9753082802795199e-02  3.5846219056531625e-02  4.2975597975075712e-02  5.1271364313139792e-02  6.0870941173347501e-02  7.1917711049396052e-02  8.4559343116174468e-02  9.8945762151034747e-02  1.1522676675995898e-01  1.3354931839495543e-01  1.5405453754198764e-01  1.7687445886691380e-01  2.0212861235898522e-01  2.2992051185634044e-01  2.6033414497929203e-01  2.9343056863583156e-01  3.2924472114469694e-01  3.6778256498386142e-01  4.0901867269882636e-01  4.5289436226557889e-01  4.9931647709176841e-01  5.4815688999983025e-01  5.9925279037118240e-01  6.5240778980012304e-01  7.0739385500221041e-01  7.6395404843270753e-01  8.2180602832676541e-01  8.8064623198317749e-01  9.4015464039222618e-01  1.0000000000000000e+00  </DataArray> 
</PointData> 
</Piece>
</UnstructuredGrid>
</VTKFile>