<?xml version="1.0"?>
<VTKFile type="UnstructuredGrid"  version="0.1"  >
<UnstructuredGrid>
<Piece  NumberOfPoints="101" NumberOfCells="100">
<Points>
<DataArray  type="Float64"  NumberOfComponents="3"  format="ascii">0 0 0  0.001 0 0  0.002 0 0  0.003 0 0  0.004 0 0  0.005 0 0  0.006000000000000001 0 0  0.007000000000000001 0 0  0.008 0 0  0.009000000000000001 0 0  0.01 0 0  0.011 0 0  0.012 0 0  0.013 0 0  0.014 0 0  0.015 0 0  0.016 0 0  0.017 0 0  0.018 0 0  0.019 0 0  0.02 0 0  0.021 0 0  0.022 0 0  0.023 0 0  0.024 0 0  0.025 0 0  0.026 0 0  0.027 0 0  0.028 0 0  0.029 0 0  0.03 0 0  0.031 0 0  0.032 0 0  0.033 0 0  0.034 0 0  0.035 0 0  0.036 0 0  0.03700000000000001 0 0  0.03800000000000001 0 0  0.03900000000000001 0 0  0.04 0 0  0.04100000000000001 0 0  0.042 0 0  0.043 0 0  0.044 0 0  0.045 0 0  0.04600000000000001 0 0  0.047 0 0  0.04800000000000001 0 0  0.049 0 0  0.05 0 0  0.051 0 0  0.052 0 0  0.05300000000000001 0 0  0.05400000000000001 0 0  0.055 0 0  0.05600000000000001 0 0  0.057 0 0  0.05800000000000001 0 0  0.059 0 0  0.06 0 0  0.06100000000000001 0 0  0.062 0 0  0.063 0 0  0.064 0 0  0.065 0 0  0.066 0 0  0.067 0 0  0.068 0 0  0.06900000000000001 0 0  0.07000000000000001 0 0  0.07100000000000001 0 0  0.07200000000000001 0 0  0.07300000000000001 0 0  0.07400000000000001 0 0  0.075 0 0  0.07600000000000001 0 0  0.077 0 0  0.07800000000000001 0 0  0.079 0 0  0.08 0 0  0.081 0 0  0.08200000000000002 0 0  0.083 0 0  0.08400000000000001 0 0  0.08500000000000001 0 0  0.08599999999999999 0 0  0.08700000000000001 0 0  0.08800000000000001 0 0  0.08900000000000001 0 0  0.09 0 0  0.091 0 0  0.09200000000000001 0 0  0.09300000000000001 0 0  0.094 0 0  0.095 0 0  0.09600000000000002 0 0  0.09700000000000002 0 0  0.098 0 0  0.099 0 0  0.1 0 0  </DataArray>
</Points>
<Cells>
<DataArray  type="UInt32"  Name="connectivity"  format="ascii">0 1  1 2  2 3  3 4  4 5  5 6  6 7  7 8  8 9  9 10  10 11  11 12  12 13  13 14  14 15  15 16  16 17  17 18  18 19  19 20  20 21  21 22  22 23  23 24  24 25  25 26  26 27  27 28  28 29  29 30  30 31  31 32  32 33  33 34  34 35  35 36  36 37  37 38  38 39  39 40  40 41  41 42  42 43  43 44  44 45  45 46  46 47  47 48  48 49  49 50  50 51  51 52  52 53  53 54  54 55  55 56  56 57  57 58  58 59  59 60  60 61  61 62  62 63  63 64  64 65  65 66  66 67  67 68  68 69  69 70  70 71  71 72  72 73  73 74  74 75  75 76  76 77  77 78  78 79  79 80  80 81  81 82  82 83  83 84  84 85  85 86  86 87  87 88  88 89  89 90  90 91  91 92  92 93  93 94  94 95  95 96  96 97  97 98  98 99  99 100  </DataArray>
<DataArray  type="UInt32"  Name="offsets"  format="ascii">2 4 6 8 10 12 14 16 18 20 22 24 26 28 30 32 34 36 38 40 42 44 46 48 50 52 54 56 58 60 62 64 66 68 70 72 74 76 78 80 82 84 86 88 90 92 94 96 98 100 102 104 106 108 110 112 114 116 118 120 122 124 126 128 130 132 134 136 138 140 142 144 146 148 150 152 154 156 158 160 162 164 166 168 170 172 174 176 178 180 182 184 186 188 190 192 194 196 198 200 </DataArray>
<DataArray  type="UInt8"  Name="types"  format="ascii">3 3 3 3 3 3 3 3 3 3 3 3 3 3 3 3 3 3 3 3 3 3 3 3 3 3 3 3 3 3 3 3 3 3 3 3 3 3 3 3 3 3 3 3 3 3 3 3 3 3 3 3 3 3 3 3 3 3 3 3 3 3 3 3 3 3 3 3 3 3 3 3 3 3 3 3 3 3 3 3 3 3 3 3 3 3 3 3 3 3 3 3 3 3 3 3 3 3 3 3 </DataArray>
</Cells>
<PointData  Scalars="f_14"> 
<DataArray  type="Float64"  Name="f_14"  format="ascii">2.7933946697687516e-05  2.8452368876860892e-05  3.0023102160474382e-05  3.2692881962028866e-05  3.6540721793814265e-05  4.1679608650777069e-05  4.8258903770308088e-05  5.6467475809351297e-05  6.6537600938492019e-05  7.8749671593889036e-05  9.3437762586215603e-05  1.1099610986519351e-04  1.3188656339136145e-04  1.5664708117323360e-04  1.8590133647420427e-04  2.2036951435148276e-04  2.6088037691664336e-04  3.0838467884748081e-04  3.6397001556365055e-04  4.2887718592153628e-04  5.0451814909375299e-04  5.9249565127412519e-04  6.9462459178293117e-04  8.1295518983094043e-04  9.4979800242793498e-04  1.1077508304930951e-03  1.2897275339548032e-03  1.4989887573492397e-03  1.7391745449995958e-03  2.0143387991729349e-03  2.3289855056025017e-03  2.6881066184110511e-03  3.0972214608132481e-03  3.5624174591149514e-03  4.0903919856379754e-03  4.6884950415342960e-03  5.3647724633518485e-03  6.1280092881040799e-03  6.9877728610009127e-03  7.9544552185401071e-03  9.0393142280533207e-03  1.0254512913864424e-02  1.1613156350854763e-02  1.3129325459434071e-02  1.4818106992752914e-02  1.6695618968599172e-02  1.8779030765977936e-02  2.1086577081096229e-02  2.3637564920591363e-02  2.6452372802563330e-02  2.9552441339483190e-02  3.2960254392454952e-02  3.6699310014635909e-02  4.0794080443756320e-02  4.5269960460368380e-02  5.0153203500247504e-02  5.5470844996604693e-02  6.1250612530542044e-02  6.7520822486322657e-02  7.4310263041060809e-02  8.1648063465610141e-02  8.9563549873627482e-02  9.8086087727618038e-02  1.0724491159246737e-01  1.1706894281647651e-01  1.2758659601487754e-01  1.3882557542855695e-01  1.5081266242836092e-01  1.6357349562978199e-01  1.7713234527074589e-01  1.9151188368323774e-01  2.0673295385416637e-01  2.2281433821872382e-01  2.3977252995717663e-01  2.5762150917030502e-01  2.7637252638656878e-01  2.9603389590282175e-01  3.1661080147763593e-01  3.3810511688013528e-01  3.6051524374617250e-01  3.8383596910687778e-01  4.0805834483163755e-01  4.3316959106882019e-01  4.5915302557388304e-01  4.8598802058751339e-01  5.1364998866834100e-01  5.4211039859840393e-01  5.7133682216833914e-01  6.0129301231721011e-01  6.3193901275348974e-01  6.6323129882377951e-01  6.9512294902972105e-01  7.2756384622660464e-01  7.6050090717511187e-01  7.9387833876603431e-01  8.2763791890233318e-01  8.6171929970893102e-01  8.9606033045333833e-01  9.3059739730429913e-01  9.6526577683543224e-01  1.0000000000000000e+00  </DataArray> 
</PointData> 
</Piece>
</UnstructuredGrid>
</VTKFile>