<?xml version="1.0"?>
<VTKFile type="UnstructuredGrid"  version="0.1"  >
<UnstructuredGrid>
<Piece  NumberOfPoints="101" NumberOfCells="100">
<Points>
<DataArray  type="Float64"  NumberOfComponents="3"  format="ascii">0 0 0  0.001 0 0  0.002 0 0  0.003 0 0  0.004 0 0  0.005 0 0  0.006000000000000001 0 0  0.007000000000000001 0 0  0.008 0 0  0.009000000000000001 0 0  0.01 0 0  0.011 0 0  0.012 0 0  0.013 0 0  0.014 0 0  0.015 0 0  0.016 0 0  0.017 0 0  0.018 0 0  0.019 0 0  0.02 0 0  0.021 0 0  0.022 0 0  0.023 0 0  0.024 0 0  0.025 0 0  0.026 0 0  0.027 0 0  0.028 0 0  0.029 0 0  0.03 0 0  0.031 0 0  0.032 0 0  0.033 0 0  0.034 0 0  0.035 0 0  0.036 0 0  0.03700000000000001 0 0  0.03800000000000001 0 0  0.03900000000000001 0 0  0.04 0 0  0.04100000000000001 0 0  0.042 0 0  0.043 0 0  0.044 0 0  0.045 0 0  0.04600000000000001 0 0  0.047 0 0  0.04800000000000001 0 0  0.049 0 0  0.05 0 0  0.051 0 0  0.052 0 0  0.05300000000000001 0 0  0.05400000000000001 0 0  0.055 0 0  0.05600000000000001 0 0  0.057 0 0  0.05800000000000001 0 0  0.059 0 0  0.06 0 0  0.06100000000000001 0 0  0.062 0 0  0.063 0 0  0.064 0 0  0.065 0 0  0.066 0 0  0.067 0 0  0.068 0 0  0.06900000000000001 0 0  0.07000000000000001 0 0  0.07100000000000001 0 0  0.07200000000000001 0 0  0.07300000000000001 0 0  0.07400000000000001 0 0  0.075 0 0  0.07600000000000001 0 0  0.077 0 0  0.07800000000000001 0 0  0.079 0 0  0.08 0 0  0.081 0 0  0.08200000000000002 0 0  0.083 0 0  0.08400000000000001 0 0  0.08500000000000001 0 0  0.08599999999999999 0 0  0.08700000000000001 0 0  0.08800000000000001 0 0  0.08900000000000001 0 0  0.09 0 0  0.091 0 0  0.09200000000000001 0 0  0.09300000000000001 0 0  0.094 0 0  0.095 0 0  0.09600000000000002 0 0  0.09700000000000002 0 0  0.098 0 0  0.099 0 0  0.1 0 0  </DataArray>
</Points>
<Cells>
<DataArray  type="UInt32"  Name="connectivity"  format="ascii">0 1  1 2  2 3  3 4  4 5  5 6  6 7  7 8  8 9  9 10  10 11  11 12  12 13  13 14  14 15  15 16  16 17  17 18  18 19  19 20  20 21  21 22  22 23  23 24  24 25  25 26  26 27  27 28  28 29  29 30  30 31  31 32  32 33  33 34  34 35  35 36  36 37  37 38  38 39  39 40  40 41  41 42  42 43  43 44  44 45  45 46  46 47  47 48  48 49  49 50  50 51  51 52  52 53  53 54  54 55  55 56  56 57  57 58  58 59  59 60  60 61  61 62  62 63  63 64  64 65  65 66  66 67  67 68  68 69  69 70  70 71  71 72  72 73  73 74  74 75  75 76  76 77  77 78  78 79  79 80  80 81  81 82  82 83  83 84  84 85  85 86  86 87  87 88  88 89  89 90  90 91  91 92  92 93  93 94  94 95  95 96  96 97  97 98  98 99  99 100  </DataArray>
<DataArray  type="UInt32"  Name="offsets"  format="ascii">2 4 6 8 10 12 14 16 18 20 22 24 26 28 30 32 34 36 38 40 42 44 46 48 50 52 54 56 58 60 62 64 66 68 70 72 74 76 78 80 82 84 86 88 90 92 94 96 98 100 102 104 106 108 110 112 114 116 118 120 122 124 126 128 130 132 134 136 138 140 142 144 146 148 150 152 154 156 158 160 162 164 166 168 170 172 174 176 178 180 182 184 186 188 190 192 194 196 198 200 </DataArray>
<DataArray  type="UInt8"  Name="types"  format="ascii">3 3 3 3 3 3 3 3 3 3 3 3 3 3 3 3 3 3 3 3 3 3 3 3 3 3 3 3 3 3 3 3 3 3 3 3 3 3 3 3 3 3 3 3 3 3 3 3 3 3 3 3 3 3 3 3 3 3 3 3 3 3 3 3 3 3 3 3 3 3 3 3 3 3 3 3 3 3 3 3 3 3 3 3 3 3 3 3 3 3 3 3 3 3 3 3 3 3 3 3 </DataArray>
</Cells>
<PointData  Scalars="f_14"> 
<DataArray  type="Float64"  Name="f_14"  format="ascii">1.8496743524792946e-10  2.0112738664889552e-10  2.5218096296675641e-10  3.4621723451979767e-10  4.9799050037343111e-10  7.3099556428945511e-10  1.0807242304711418e-09  1.5994979203891247e-09  2.3634507802187735e-09  3.4824744859428704e-09  5.1142516253898948e-09  7.4839264559264248e-09  1.0911525108895260e-08  1.5849986825816782e-08  2.2937660728401153e-08  3.3070431321717605e-08  4.7500351439583753e-08  6.7969897315726293e-08  9.6893857673241921e-08  1.3760460005689097e-07  1.9468123352674723e-07  2.7438926100254970e-07  3.8526498979000904e-07  5.3888860257365972e-07  7.5090180040735821e-07  1.0423407941461798e-06  1.4413736863782717e-06  1.9855535609202096e-06  2.7247255484970274e-06  3.7247584805699761e-06  5.0723102246525207e-06  6.8808811659049707e-06  9.2984632841250350e-06  1.2517153519656538e-05  1.6785170138662920e-05  2.2421789902283283e-05  2.9835812024614072e-05  3.9548251782952446e-05  5.2220071318975883e-05  6.8685866100392086e-05  8.9994540383827576e-05  1.1745812060551804e-04  1.5270996765902987e-04  1.9777375207245484e-04  2.5514464349523996e-04  3.2788422966956670e-04  4.1973071091585602e-04  5.3522590360157384e-04  6.7986051851196200e-04  8.6023904511368075e-04  1.0842653575731211e-03  1.3613498502949488e-03  1.7026384976058149e-03  2.1212637033866345e-03  2.6326161536320814e-03  3.2546361030470687e-03  4.0081216151516986e-03  4.9170502386036291e-03  6.0089094515990652e-03  7.3150299596340959e-03  8.8709146160191130e-03  1.0716554384317224e-02  1.2896721421020017e-02  1.5461228077424359e-02  1.8465139461674100e-02  2.1968926231523120e-02  2.6038543576311725e-02  3.0745421965734272e-02  3.6166355265040015e-02  4.2383272308697539e-02  4.9482879046238860e-02  5.7556159971472801e-02  6.6697729749379278e-02  7.7005028773048448e-02  8.8577359801197519e-02  1.0151476680337299e-01  1.1591676160445898e-01  1.3188090877268538e-01  1.4950128430744675e-01  1.6886682889992011e-01  1.9005962168334162e-01  2.1315310526627418e-01  2.3821029724676471e-01  2.6528202713133309e-01  2.9440524043100474e-01  3.2560141349462068e-01  3.5887512321172932e-01  3.9421281495359817e-01  4.3158180994579365e-01  4.7092958965491105e-01  5.1218338975673605e-01  5.5525012992316503e-01  6.0001669816817915e-01  6.4635060003157030e-01  6.9410097370424129e-01  7.4309996260213196e-01  7.9316442719769487e-01  8.4409796845500074e-01  8.9569322632554926e-01  9.4773440877253368e-01  1.0000000000000000e+00  </DataArray> 
</PointData> 
</Piece>
</UnstructuredGrid>
</VTKFile>