<?xml version="1.0"?>
<VTKFile type="UnstructuredGrid"  version="0.1"  >
<UnstructuredGrid>
<Piece  NumberOfPoints="101" NumberOfCells="100">
<Points>
<DataArray  type="Float64"  NumberOfComponents="3"  format="ascii">0 0 0  0.001 0 0  0.002 0 0  0.003 0 0  0.004 0 0  0.005 0 0  0.006000000000000001 0 0  0.007000000000000001 0 0  0.008 0 0  0.009000000000000001 0 0  0.01 0 0  0.011 0 0  0.012 0 0  0.013 0 0  0.014 0 0  0.015 0 0  0.016 0 0  0.017 0 0  0.018 0 0  0.019 0 0  0.02 0 0  0.021 0 0  0.022 0 0  0.023 0 0  0.024 0 0  0.025 0 0  0.026 0 0  0.027 0 0  0.028 0 0  0.029 0 0  0.03 0 0  0.031 0 0  0.032 0 0  0.033 0 0  0.034 0 0  0.035 0 0  0.036 0 0  0.03700000000000001 0 0  0.03800000000000001 0 0  0.03900000000000001 0 0  0.04 0 0  0.04100000000000001 0 0  0.042 0 0  0.043 0 0  0.044 0 0  0.045 0 0  0.04600000000000001 0 0  0.047 0 0  0.04800000000000001 0 0  0.049 0 0  0.05 0 0  0.051 0 0  0.052 0 0  0.05300000000000001 0 0  0.05400000000000001 0 0  0.055 0 0  0.05600000000000001 0 0  0.057 0 0  0.05800000000000001 0 0  0.059 0 0  0.06 0 0  0.06100000000000001 0 0  0.062 0 0  0.063 0 0  0.064 0 0  0.065 0 0  0.066 0 0  0.067 0 0  0.068 0 0  0.06900000000000001 0 0  0.07000000000000001 0 0  0.07100000000000001 0 0  0.07200000000000001 0 0  0.07300000000000001 0 0  0.07400000000000001 0 0  0.075 0 0  0.07600000000000001 0 0  0.077 0 0  0.07800000000000001 0 0  0.079 0 0  0.08 0 0  0.081 0 0  0.08200000000000002 0 0  0.083 0 0  0.08400000000000001 0 0  0.08500000000000001 0 0  0.08599999999999999 0 0  0.08700000000000001 0 0  0.08800000000000001 0 0  0.08900000000000001 0 0  0.09 0 0  0.091 0 0  0.09200000000000001 0 0  0.09300000000000001 0 0  0.094 0 0  0.095 0 0  0.09600000000000002 0 0  0.09700000000000002 0 0  0.098 0 0  0.099 0 0  0.1 0 0  </DataArray>
</Points>
<Cells>
<DataArray  type="UInt32"  Name="connectivity"  format="ascii">0 1  1 2  2 3  3 4  4 5  5 6  6 7  7 8  8 9  9 10  10 11  11 12  12 13  13 14  14 15  15 16  16 17  17 18  18 19  19 20  20 21  21 22  22 23  23 24  24 25  25 26  26 27  27 28  28 29  29 30  30 31  31 32  32 33  33 34  34 35  35 36  36 37  37 38  38 39  39 40  40 41  41 42  42 43  43 44  44 45  45 46  46 47  47 48  48 49  49 50  50 51  51 52  52 53  53 54  54 55  55 56  56 57  57 58  58 59  59 60  60 61  61 62  62 63  63 64  64 65  65 66  66 67  67 68  68 69  69 70  70 71  71 72  72 73  73 74  74 75  75 76  76 77  77 78  78 79  79 80  80 81  81 82  82 83  83 84  84 85  85 86  86 87  87 88  88 89  89 90  90 91  91 92  92 93  93 94  94 95  95 96  96 97  97 98  98 99  99 100  </DataArray>
<DataArray  type="UInt32"  Name="offsets"  format="ascii">2 4 6 8 10 12 14 16 18 20 22 24 26 28 30 32 34 36 38 40 42 44 46 48 50 52 54 56 58 60 62 64 66 68 70 72 74 76 78 80 82 84 86 88 90 92 94 96 98 100 102 104 106 108 110 112 114 116 118 120 122 124 126 128 130 132 134 136 138 140 142 144 146 148 150 152 154 156 158 160 162 164 166 168 170 172 174 176 178 180 182 184 186 188 190 192 194 196 198 200 </DataArray>
<DataArray  type="UInt8"  Name="types"  format="ascii">3 3 3 3 3 3 3 3 3 3 3 3 3 3 3 3 3 3 3 3 3 3 3 3 3 3 3 3 3 3 3 3 3 3 3 3 3 3 3 3 3 3 3 3 3 3 3 3 3 3 3 3 3 3 3 3 3 3 3 3 3 3 3 3 3 3 3 3 3 3 3 3 3 3 3 3 3 3 3 3 3 3 3 3 3 3 3 3 3 3 3 3 3 3 3 3 3 3 3 3 </DataArray>
</Cells>
<PointData  Scalars="f_14"> 
<DataArray  type="Float64"  Name="f_14"  format="ascii">3.0929945388469146e-04  3.1265440829125209e-04  3.2277350692654338e-04  3.3981998336149775e-04  3.6406765160391203e-04  3.9590354421950423e-04  4.3583160761082761e-04  4.8447745598188900e-04  5.4259418541015509e-04  6.1106924893881412e-04  6.9093239260619073e-04  7.8336465076476731e-04  8.8970839683196216e-04  1.0114784426860041e-03  1.1503741762059377e-03  1.3082927218946024e-03  1.4873431040646678e-03  1.6898613856665904e-03  1.9184267484597913e-03  2.1758784718518254e-03  2.4653337583447157e-03  2.7902063431367199e-03  3.1542258140504157e-03  3.5614575556295156e-03  4.0163232180199177e-03  4.5236215971969336e-03  5.0885497983114538e-03  5.7167245385146602e-03  6.4142034297166644e-03  7.1875060654928496e-03  8.0436347199486155e-03  8.9900944499850134e-03  1.0034912376291573e-02  1.1186655902765606e-02  1.2454449619173162e-02  1.3847990617997571e-02  1.5377561943850900e-02  1.7054043882847748e-02  1.8888922790262924e-02  2.0894297147921567e-02  2.3082880538410008e-02  2.5468001221649397e-02  2.8063598000934723e-02  3.0884212070487808e-02  3.3944974545157665e-02  3.7261589385360672e-02  4.0850311446880734e-02  4.4727919405907035e-02  4.8911683334796570e-02  5.3419326733567772e-02  5.8268982856089162e-02  6.3479145208262519e-02  6.9068612138121391e-02  7.5056425484488043e-02  8.1461803301419985e-02  8.8304066729816610e-02  9.5602561144864970e-02  1.0337657176802531e-01  1.1164523399447772e-01  1.2042743875076968e-01  1.2974173326219021e-01  1.3960621767442519e-01  1.5003843803858283e-01  1.6105527623191543e-01  1.7267283744767192e-01  1.8490633594566300e-01  1.9776997980942995e-01  2.1127685550553296e-01  2.2543881308457356e-01  2.4026635290131806e-01  2.5576851476192491e-01  2.7195277042908328e-01  2.8882492043018437e-01  3.0638899611891252e-01  3.2464716793637438e-01  3.4359966080371684e-01  3.6324467755385842e-01  3.8357833127533508e-01  4.0459458739636273e-01  4.2628521628211991e-01  4.4863975705331571e-01  4.7164549325963395e-01  4.9528744095828792e-01  5.1954834965628705e-01  5.4440871647597511e-01  5.6984681379784430e-01  5.9583873052366132e-01  6.2235842698765298e-01  6.4937780342515639e-01  6.7686678178807302e-01  7.0479340057594619e-01  7.3312392223201039e-01  7.6182295253645615e-01  7.9085357131586065e-01  8.2017747367961102e-01  8.4975512089251926e-01  8.7954589989896070e-01  9.0950829042894810e-01  9.3960003854161966e-01  9.6977833539766289e-01  1.0000000000000000e+00  </DataArray> 
</PointData> 
</Piece>
</UnstructuredGrid>
</VTKFile>