<?xml version="1.0"?>
<VTKFile type="UnstructuredGrid"  version="0.1"  >
<UnstructuredGrid>
<Piece  NumberOfPoints="101" NumberOfCells="100">
<Points>
<DataArray  type="Float64"  NumberOfComponents="3"  format="ascii">0 0 0  0.001 0 0  0.002 0 0  0.003 0 0  0.004 0 0  0.005 0 0  0.006000000000000001 0 0  0.007000000000000001 0 0  0.008 0 0  0.009000000000000001 0 0  0.01 0 0  0.011 0 0  0.012 0 0  0.013 0 0  0.014 0 0  0.015 0 0  0.016 0 0  0.017 0 0  0.018 0 0  0.019 0 0  0.02 0 0  0.021 0 0  0.022 0 0  0.023 0 0  0.024 0 0  0.025 0 0  0.026 0 0  0.027 0 0  0.028 0 0  0.029 0 0  0.03 0 0  0.031 0 0  0.032 0 0  0.033 0 0  0.034 0 0  0.035 0 0  0.036 0 0  0.03700000000000001 0 0  0.03800000000000001 0 0  0.03900000000000001 0 0  0.04 0 0  0.04100000000000001 0 0  0.042 0 0  0.043 0 0  0.044 0 0  0.045 0 0  0.04600000000000001 0 0  0.047 0 0  0.04800000000000001 0 0  0.049 0 0  0.05 0 0  0.051 0 0  0.052 0 0  0.05300000000000001 0 0  0.05400000000000001 0 0  0.055 0 0  0.05600000000000001 0 0  0.057 0 0  0.05800000000000001 0 0  0.059 0 0  0.06 0 0  0.06100000000000001 0 0  0.062 0 0  0.063 0 0  0.064 0 0  0.065 0 0  0.066 0 0  0.067 0 0  0.068 0 0  0.06900000000000001 0 0  0.07000000000000001 0 0  0.07100000000000001 0 0  0.07200000000000001 0 0  0.07300000000000001 0 0  0.07400000000000001 0 0  0.075 0 0  0.07600000000000001 0 0  0.077 0 0  0.07800000000000001 0 0  0.079 0 0  0.08 0 0  0.081 0 0  0.08200000000000002 0 0  0.083 0 0  0.08400000000000001 0 0  0.08500000000000001 0 0  0.08599999999999999 0 0  0.08700000000000001 0 0  0.08800000000000001 0 0  0.08900000000000001 0 0  0.09 0 0  0.091 0 0  0.09200000000000001 0 0  0.09300000000000001 0 0  0.094 0 0  0.095 0 0  0.09600000000000002 0 0  0.09700000000000002 0 0  0.098 0 0  0.099 0 0  0.1 0 0  </DataArray>
</Points>
<Cells>
<DataArray  type="UInt32"  Name="connectivity"  format="ascii">0 1  1 2  2 3  3 4  4 5  5 6  6 7  7 8  8 9  9 10  10 11  11 12  12 13  13 14  14 15  15 16  16 17  17 18  18 19  19 20  20 21  21 22  22 23  23 24  24 25  25 26  26 27  27 28  28 29  29 30  30 31  31 32  32 33  33 34  34 35  35 36  36 37  37 38  38 39  39 40  40 41  41 42  42 43  43 44  44 45  45 46  46 47  47 48  48 49  49 50  50 51  51 52  52 53  53 54  54 55  55 56  56 57  57 58  58 59  59 60  60 61  61 62  62 63  63 64  64 65  65 66  66 67  67 68  68 69  69 70  70 71  71 72  72 73  73 74  74 75  75 76  76 77  77 78  78 79  79 80  80 81  81 82  82 83  83 84  84 85  85 86  86 87  87 88  88 89  89 90  90 91  91 92  92 93  93 94  94 95  95 96  96 97  97 98  98 99  99 100  </DataArray>
<DataArray  type="UInt32"  Name="offsets"  format="ascii">2 4 6 8 10 12 14 16 18 20 22 24 26 28 30 32 34 36 38 40 42 44 46 48 50 52 54 56 58 60 62 64 66 68 70 72 74 76 78 80 82 84 86 88 90 92 94 96 98 100 102 104 106 108 110 112 114 116 118 120 122 124 126 128 130 132 134 136 138 140 142 144 146 148 150 152 154 156 158 160 162 164 166 168 170 172 174 176 178 180 182 184 186 188 190 192 194 196 198 200 </DataArray>
<DataArray  type="UInt8"  Name="types"  format="ascii">3 3 3 3 3 3 3 3 3 3 3 3 3 3 3 3 3 3 3 3 3 3 3 3 3 3 3 3 3 3 3 3 3 3 3 3 3 3 3 3 3 3 3 3 3 3 3 3 3 3 3 3 3 3 3 3 3 3 3 3 3 3 3 3 3 3 3 3 3 3 3 3 3 3 3 3 3 3 3 3 3 3 3 3 3 3 3 3 3 3 3 3 3 3 3 3 3 3 3 3 </DataArray>
</Cells>
<PointData  Scalars="f_14"> 
<DataArray  type="Float64"  Name="f_14"  format="ascii">1.1269773630676515e-65  3.0740388469258449e-65  1.5634303640515606e-64  8.2120729421320403e-64  4.3159779668582257e-63  2.2669769334352255e-62  1.1899601524469790e-61  6.2420684042672967e-61  3.2721199038245420e-60  1.7140681804874454e-59  8.9726056655617050e-59  4.6934680470585642e-58  2.4532788078912059e-57  1.2813578411948537e-56  6.6873940050453800e-56  3.4873743109266071e-55  1.8171355747245273e-54  9.4605169597226241e-54  4.9212172238928383e-53  2.5577104355439676e-52  1.3281346415261031e-51  6.8902517980822891e-51  3.5712507904814545e-50  1.8492153988880367e-49  9.5658986572451060e-49  4.9433797998153727e-48  2.5519400815696847e-47  1.3159917147228918e-46  6.7789031294686407e-46  3.4879975881590843e-45  1.7926261828656242e-44  9.2020770044860037e-44  4.7179105680926262e-43  2.4158265816314319e-42  1.2354291048139459e-41  6.3094137406501699e-41  3.2178189541924794e-40  1.6387666543242995e-39  8.3336675481358792e-39  4.2315401444718774e-38  2.1452737416931236e-37  1.0858418945994856e-36  5.4868949420884644e-36  2.7678224285110450e-35  1.3937196064754680e-34  7.0050447214857996e-34  3.5141150799868150e-33  1.7593825872497203e-32  8.7904646792815546e-32  4.3826500089115882e-31  2.1802153186477712e-30  1.0820859203766810e-29  5.3577657191307133e-29  2.6462002104964176e-28  1.3035671918800624e-27  6.4042419874834248e-27  3.1374321993706818e-26  1.5324932542586381e-25  7.4624594357245267e-25  3.6221139299754030e-24  1.7521529609325520e-23  8.4457829528691511e-23  4.0559131827562048e-22  1.9401493627240652e-21  9.2425093243746373e-21  4.3838539539158685e-20  2.0698026817279100e-19  9.7251174027800354e-19  4.5460084566603778e-18  2.1134912592895703e-17  9.7691868256690418e-17  4.4878985044828329e-16  2.0482237025582535e-15  9.2825366418758956e-15  4.1753767103682957e-14  1.8630557833986010e-13  8.2412300443874027e-13  3.6115880620510195e-12  1.5667971254329243e-11  6.7229932728531760e-11  2.8505356688438710e-10  1.1929597477871801e-09  4.9216976820339239e-09  1.9987948486423222e-08  7.9774527992372184e-08  3.1229595356790499e-07  1.1964604492988221e-06  4.4741848438389502e-06  1.6280150999762919e-05  5.7427623142879139e-05  1.9551226124538108e-04  6.3900086857520072e-04  1.9920998908027261e-03  5.8781528542058434e-03  1.6265694169710142e-02  4.1753589330840432e-02  9.8216393782731032e-02  2.0899889787953213e-01  3.9755130287962281e-01  6.7030794763060753e-01  1.0000000000000000e+00  </DataArray> 
</PointData> 
</Piece>
</UnstructuredGrid>
</VTKFile>