<?xml version="1.0"?>
<VTKFile type="UnstructuredGrid"  version="0.1"  >
<UnstructuredGrid>
<Piece  NumberOfPoints="101" NumberOfCells="100">
<Points>
<DataArray  type="Float64"  NumberOfComponents="3"  format="ascii">0 0 0  0.001 0 0  0.002 0 0  0.003 0 0  0.004 0 0  0.005 0 0  0.006000000000000001 0 0  0.007000000000000001 0 0  0.008 0 0  0.009000000000000001 0 0  0.01 0 0  0.011 0 0  0.012 0 0  0.013 0 0  0.014 0 0  0.015 0 0  0.016 0 0  0.017 0 0  0.018 0 0  0.019 0 0  0.02 0 0  0.021 0 0  0.022 0 0  0.023 0 0  0.024 0 0  0.025 0 0  0.026 0 0  0.027 0 0  0.028 0 0  0.029 0 0  0.03 0 0  0.031 0 0  0.032 0 0  0.033 0 0  0.034 0 0  0.035 0 0  0.036 0 0  0.03700000000000001 0 0  0.03800000000000001 0 0  0.03900000000000001 0 0  0.04 0 0  0.04100000000000001 0 0  0.042 0 0  0.043 0 0  0.044 0 0  0.045 0 0  0.04600000000000001 0 0  0.047 0 0  0.04800000000000001 0 0  0.049 0 0  0.05 0 0  0.051 0 0  0.052 0 0  0.05300000000000001 0 0  0.05400000000000001 0 0  0.055 0 0  0.05600000000000001 0 0  0.057 0 0  0.05800000000000001 0 0  0.059 0 0  0.06 0 0  0.06100000000000001 0 0  0.062 0 0  0.063 0 0  0.064 0 0  0.065 0 0  0.066 0 0  0.067 0 0  0.068 0 0  0.06900000000000001 0 0  0.07000000000000001 0 0  0.07100000000000001 0 0  0.07200000000000001 0 0  0.07300000000000001 0 0  0.07400000000000001 0 0  0.075 0 0  0.07600000000000001 0 0  0.077 0 0  0.07800000000000001 0 0  0.079 0 0  0.08 0 0  0.081 0 0  0.08200000000000002 0 0  0.083 0 0  0.08400000000000001 0 0  0.08500000000000001 0 0  0.08599999999999999 0 0  0.08700000000000001 0 0  0.08800000000000001 0 0  0.08900000000000001 0 0  0.09 0 0  0.091 0 0  0.09200000000000001 0 0  0.09300000000000001 0 0  0.094 0 0  0.095 0 0  0.09600000000000002 0 0  0.09700000000000002 0 0  0.098 0 0  0.099 0 0  0.1 0 0  </DataArray>
</Points>
<Cells>
<DataArray  type="UInt32"  Name="connectivity"  format="ascii">0 1  1 2  2 3  3 4  4 5  5 6  6 7  7 8  8 9  9 10  10 11  11 12  12 13  13 14  14 15  15 16  16 17  17 18  18 19  19 20  20 21  21 22  22 23  23 24  24 25  25 26  26 27  27 28  28 29  29 30  30 31  31 32  32 33  33 34  34 35  35 36  36 37  37 38  38 39  39 40  40 41  41 42  42 43  43 44  44 45  45 46  46 47  47 48  48 49  49 50  50 51  51 52  52 53  53 54  54 55  55 56  56 57  57 58  58 59  59 60  60 61  61 62  62 63  63 64  64 65  65 66  66 67  67 68  68 69  69 70  70 71  71 72  72 73  73 74  74 75  75 76  76 77  77 78  78 79  79 80  80 81  81 82  82 83  83 84  84 85  85 86  86 87  87 88  88 89  89 90  90 91  91 92  92 93  93 94  94 95  95 96  96 97  97 98  98 99  99 100  </DataArray>
<DataArray  type="UInt32"  Name="offsets"  format="ascii">2 4 6 8 10 12 14 16 18 20 22 24 26 28 30 32 34 36 38 40 42 44 46 48 50 52 54 56 58 60 62 64 66 68 70 72 74 76 78 80 82 84 86 88 90 92 94 96 98 100 102 104 106 108 110 112 114 116 118 120 122 124 126 128 130 132 134 136 138 140 142 144 146 148 150 152 154 156 158 160 162 164 166 168 170 172 174 176 178 180 182 184 186 188 190 192 194 196 198 200 </DataArray>
<DataArray  type="UInt8"  Name="types"  format="ascii">3 3 3 3 3 3 3 3 3 3 3 3 3 3 3 3 3 3 3 3 3 3 3 3 3 3 3 3 3 3 3 3 3 3 3 3 3 3 3 3 3 3 3 3 3 3 3 3 3 3 3 3 3 3 3 3 3 3 3 3 3 3 3 3 3 3 3 3 3 3 3 3 3 3 3 3 3 3 3 3 3 3 3 3 3 3 3 3 3 3 3 3 3 3 3 3 3 3 3 3 </DataArray>
</Cells>
<PointData  Scalars="f_14"> 
<DataArray  type="Float64"  Name="f_14"  format="ascii">1.3815338304642422e-05  1.4108469162880342e-05  1.4998015897497046e-05  1.6514704703041250e-05  1.8710629059349531e-05  2.1660588835293421e-05  2.5463993769712395e-05  3.0247360049035701e-05  3.6167436872202268e-05  4.3415008018963501e-05  5.2219421485536051e-05  6.2853908177034067e-05  7.5641758389367178e-05  9.0963432297635422e-05  1.0926468779809826e-04  1.3106581571094500e-04  1.5697207840431637e-04  1.8768545318698438e-04  2.2401778615572081e-04  2.6690546536893242e-04  3.1742572402388493e-04  3.7681468449337637e-04  4.4648725236305165e-04  5.2805896572103057e-04  6.2336989859356905e-04  7.3451070829343092e-04  8.6385090424944018e-04  1.0140694003196108e-03  1.1881873933727919e-03  1.3896035877932610e-03  1.6221317582891324e-03  1.8900406117808805e-03  2.1980958730760331e-03  2.5516044784306469e-03  2.9564607159646887e-03  3.4191941023334455e-03  3.9470187312574808e-03  4.5478837717882635e-03  5.2305247329660293e-03  6.0045150473716736e-03  6.8803174596835910e-03  7.8693346385631316e-03  8.9839583619911855e-03  1.0237616558688593e-02  1.1644817422733943e-02  1.3221189756334005e-02  1.4983518638405739e-02  1.6949775465792408e-02  1.9139141371235738e-02  2.1572022989375841e-02  2.4270059520793447e-02  2.7256120036153530e-02  3.0554289969521437e-02  3.4189845773452396e-02  3.8189216749918972e-02  4.2579933131756204e-02  4.7390559570053767e-02  5.2650613284502837e-02  5.8390466256486126e-02  6.4641230988670542e-02  7.1434629519630963e-02  7.8802845566734947e-02  8.6778359873867478e-02  9.5393769060777081e-02  1.0468158850562287e-01  1.1467404003897264e-01  1.2540282548283779e-01  1.3689888732873182e-01  1.4919215811019146e-01  1.6231130028337956e-01  1.7628343867969315e-01  1.9113388783194935e-01  2.0688587669583108e-01  2.2356027348595342e-01  2.4117531351637289e-01  2.5974633307402095e-01  2.7928551245612998e-01  2.9980163136537941e-01  3.2129983987593669e-01  3.4378144815704859e-01  3.6724373806647653e-01  3.9167979960258742e-01  4.1707839503110306e-01  4.4342385328089179e-01  4.7069599693437092e-01  4.9887010382449892e-01  5.2791690489548726e-01  5.5780261959250044e-01  5.8848902962197680e-01  6.1993359147475768e-01  6.5208958763550318e-01  6.8490631592119655e-01  7.1832931590640203e-01  7.5230063091130572e-01  7.8675910355840095e-01  8.2164070245297094e-01  8.5687887711904043e-01  8.9240493793363418e-01  9.2814845745483221e-01  9.6403768923949151e-01  1.0000000000000000e+00  </DataArray> 
</PointData> 
</Piece>
</UnstructuredGrid>
</VTKFile>