<?xml version="1.0"?>
<VTKFile type="UnstructuredGrid"  version="0.1"  >
<UnstructuredGrid>
<Piece  NumberOfPoints="101" NumberOfCells="100">
<Points>
<DataArray  type="Float64"  NumberOfComponents="3"  format="ascii">0 0 0  0.001 0 0  0.002 0 0  0.003 0 0  0.004 0 0  0.005 0 0  0.006000000000000001 0 0  0.007000000000000001 0 0  0.008 0 0  0.009000000000000001 0 0  0.01 0 0  0.011 0 0  0.012 0 0  0.013 0 0  0.014 0 0  0.015 0 0  0.016 0 0  0.017 0 0  0.018 0 0  0.019 0 0  0.02 0 0  0.021 0 0  0.022 0 0  0.023 0 0  0.024 0 0  0.025 0 0  0.026 0 0  0.027 0 0  0.028 0 0  0.029 0 0  0.03 0 0  0.031 0 0  0.032 0 0  0.033 0 0  0.034 0 0  0.035 0 0  0.036 0 0  0.03700000000000001 0 0  0.03800000000000001 0 0  0.03900000000000001 0 0  0.04 0 0  0.04100000000000001 0 0  0.042 0 0  0.043 0 0  0.044 0 0  0.045 0 0  0.04600000000000001 0 0  0.047 0 0  0.04800000000000001 0 0  0.049 0 0  0.05 0 0  0.051 0 0  0.052 0 0  0.05300000000000001 0 0  0.05400000000000001 0 0  0.055 0 0  0.05600000000000001 0 0  0.057 0 0  0.05800000000000001 0 0  0.059 0 0  0.06 0 0  0.06100000000000001 0 0  0.062 0 0  0.063 0 0  0.064 0 0  0.065 0 0  0.066 0 0  0.067 0 0  0.068 0 0  0.06900000000000001 0 0  0.07000000000000001 0 0  0.07100000000000001 0 0  0.07200000000000001 0 0  0.07300000000000001 0 0  0.07400000000000001 0 0  0.075 0 0  0.07600000000000001 0 0  0.077 0 0  0.07800000000000001 0 0  0.079 0 0  0.08 0 0  0.081 0 0  0.08200000000000002 0 0  0.083 0 0  0.08400000000000001 0 0  0.08500000000000001 0 0  0.08599999999999999 0 0  0.08700000000000001 0 0  0.08800000000000001 0 0  0.08900000000000001 0 0  0.09 0 0  0.091 0 0  0.09200000000000001 0 0  0.09300000000000001 0 0  0.094 0 0  0.095 0 0  0.09600000000000002 0 0  0.09700000000000002 0 0  0.098 0 0  0.099 0 0  0.1 0 0  </DataArray>
</Points>
<Cells>
<DataArray  type="UInt32"  Name="connectivity"  format="ascii">0 1  1 2  2 3  3 4  4 5  5 6  6 7  7 8  8 9  9 10  10 11  11 12  12 13  13 14  14 15  15 16  16 17  17 18  18 19  19 20  20 21  21 22  22 23  23 24  24 25  25 26  26 27  27 28  28 29  29 30  30 31  31 32  32 33  33 34  34 35  35 36  36 37  37 38  38 39  39 40  40 41  41 42  42 43  43 44  44 45  45 46  46 47  47 48  48 49  49 50  50 51  51 52  52 53  53 54  54 55  55 56  56 57  57 58  58 59  59 60  60 61  61 62  62 63  63 64  64 65  65 66  66 67  67 68  68 69  69 70  70 71  71 72  72 73  73 74  74 75  75 76  76 77  77 78  78 79  79 80  80 81  81 82  82 83  83 84  84 85  85 86  86 87  87 88  88 89  89 90  90 91  91 92  92 93  93 94  94 95  95 96  96 97  97 98  98 99  99 100  </DataArray>
<DataArray  type="UInt32"  Name="offsets"  format="ascii">2 4 6 8 10 12 14 16 18 20 22 24 26 28 30 32 34 36 38 40 42 44 46 48 50 52 54 56 58 60 62 64 66 68 70 72 74 76 78 80 82 84 86 88 90 92 94 96 98 100 102 104 106 108 110 112 114 116 118 120 122 124 126 128 130 132 134 136 138 140 142 144 146 148 150 152 154 156 158 160 162 164 166 168 170 172 174 176 178 180 182 184 186 188 190 192 194 196 198 200 </DataArray>
<DataArray  type="UInt8"  Name="types"  format="ascii">3 3 3 3 3 3 3 3 3 3 3 3 3 3 3 3 3 3 3 3 3 3 3 3 3 3 3 3 3 3 3 3 3 3 3 3 3 3 3 3 3 3 3 3 3 3 3 3 3 3 3 3 3 3 3 3 3 3 3 3 3 3 3 3 3 3 3 3 3 3 3 3 3 3 3 3 3 3 3 3 3 3 3 3 3 3 3 3 3 3 3 3 3 3 3 3 3 3 3 3 </DataArray>
</Cells>
<PointData  Scalars="f_14"> 
<DataArray  type="Float64"  Name="f_14"  format="ascii">2.4288553897521109e-04  2.4568513546134021e-04  2.5413249255567421e-04  2.6837383446674123e-04  2.8865460669269804e-04  3.1532208655177582e-04  3.4882904336166158e-04  3.8973845330315618e-04  4.3872927487027694e-04  4.9660329124984854e-04  5.6429302589733614e-04  6.4287073689332243e-04  7.3355849429069435e-04  8.3773934251411017e-04  9.5696954687302734e-04  1.0929919193254881e-03  1.2477502137165902e-03  1.4234045747556327e-03  1.6223480179410820e-03  1.8472239094550133e-03  2.1009444057030991e-03  2.3867098016606557e-03  2.7080287255031366e-03  3.0687391041712177e-03  3.4730298105848951e-03  3.9254628882368341e-03  4.4309962329425788e-03  4.9950065947071132e-03  5.6233127451103052e-03  6.3221986374689121e-03  7.0984363684764296e-03  7.9593087312555093e-03  8.9126311310071260e-03  9.9667726159574591e-03  1.1130675758360714e-02  1.2413875103210251e-02  1.3826513886355687e-02  1.5379358709251766e-02  1.7083811844920666e-02  1.8951920839246864e-02  2.0996385063801859e-02  2.3230558871373919e-02  2.5668451003607731e-02  2.8324719901984426e-02  3.1214664579112959e-02  3.4354210717263127e-02  3.7759891675512587e-02  4.1448824106032359e-02  4.5438677904087343e-02  4.9747640245399925e-02  5.4394373498701437e-02  5.9397966840570082e-02  6.4777881443975879e-02  7.0553889161171668e-02  7.6746004675475529e-02  8.3374411154778477e-02  9.0459379501900986e-02  9.8021181362741794e-02  1.0607999612196838e-01  1.1465581218714396e-01  1.2376832293498458e-01  1.3343681776708438e-01  1.4368006879611939e-01  1.5451621375632454e-01  1.6596263580298870e-01  1.7803584093386923e-01  1.9075133382976367e-01  2.0412349297101012e-01  2.1816544594040688e-01  2.3288894586997966e-01  2.4830425002824177e-01  2.6442000157521767e-01  2.8124311553372050e-01  2.9877867003648356e-01  3.1702980390911784e-01  3.3599762163802283e-01  3.5568110674994358e-01  3.7607704459561103e-01  3.9717995548379742e-01  4.1898203905417447e-01  4.4147313070793670e-01  4.6464067083454835e-01  4.8846968748188491e-01  5.1294279301612700e-01  5.3804019520799207e-01  5.6373972306427200e-01  5.9001686759939875e-01  6.1684483761217912e-01  6.4419463039935165e-01  6.7203511720175424e-01  7.0033314304215910e-01  7.2905364047794707e-01  7.5815975665831736e-01  7.8761299294635523e-01  8.1737335624259577e-01  8.4739952103030192e-01  8.7764900105500376e-01  9.0807832945332589e-01  9.3864324606000937e-01  9.6929889054844909e-01  1.0000000000000000e+00  </DataArray> 
</PointData> 
</Piece>
</UnstructuredGrid>
</VTKFile>