<?xml version="1.0"?>
<VTKFile type="UnstructuredGrid"  version="0.1"  >
<UnstructuredGrid>
<Piece  NumberOfPoints="101" NumberOfCells="100">
<Points>
<DataArray  type="Float64"  NumberOfComponents="3"  format="ascii">0 0 0  0.001 0 0  0.002 0 0  0.003 0 0  0.004 0 0  0.005 0 0  0.006000000000000001 0 0  0.007000000000000001 0 0  0.008 0 0  0.009000000000000001 0 0  0.01 0 0  0.011 0 0  0.012 0 0  0.013 0 0  0.014 0 0  0.015 0 0  0.016 0 0  0.017 0 0  0.018 0 0  0.019 0 0  0.02 0 0  0.021 0 0  0.022 0 0  0.023 0 0  0.024 0 0  0.025 0 0  0.026 0 0  0.027 0 0  0.028 0 0  0.029 0 0  0.03 0 0  0.031 0 0  0.032 0 0  0.033 0 0  0.034 0 0  0.035 0 0  0.036 0 0  0.03700000000000001 0 0  0.03800000000000001 0 0  0.03900000000000001 0 0  0.04 0 0  0.04100000000000001 0 0  0.042 0 0  0.043 0 0  0.044 0 0  0.045 0 0  0.04600000000000001 0 0  0.047 0 0  0.04800000000000001 0 0  0.049 0 0  0.05 0 0  0.051 0 0  0.052 0 0  0.05300000000000001 0 0  0.05400000000000001 0 0  0.055 0 0  0.05600000000000001 0 0  0.057 0 0  0.05800000000000001 0 0  0.059 0 0  0.06 0 0  0.06100000000000001 0 0  0.062 0 0  0.063 0 0  0.064 0 0  0.065 0 0  0.066 0 0  0.067 0 0  0.068 0 0  0.06900000000000001 0 0  0.07000000000000001 0 0  0.07100000000000001 0 0  0.07200000000000001 0 0  0.07300000000000001 0 0  0.07400000000000001 0 0  0.075 0 0  0.07600000000000001 0 0  0.077 0 0  0.07800000000000001 0 0  0.079 0 0  0.08 0 0  0.081 0 0  0.08200000000000002 0 0  0.083 0 0  0.08400000000000001 0 0  0.08500000000000001 0 0  0.08599999999999999 0 0  0.08700000000000001 0 0  0.08800000000000001 0 0  0.08900000000000001 0 0  0.09 0 0  0.091 0 0  0.09200000000000001 0 0  0.09300000000000001 0 0  0.094 0 0  0.095 0 0  0.09600000000000002 0 0  0.09700000000000002 0 0  0.098 0 0  0.099 0 0  0.1 0 0  </DataArray>
</Points>
<Cells>
<DataArray  type="UInt32"  Name="connectivity"  format="ascii">0 1  1 2  2 3  3 4  4 5  5 6  6 7  7 8  8 9  9 10  10 11  11 12  12 13  13 14  14 15  15 16  16 17  17 18  18 19  19 20  20 21  21 22  22 23  23 24  24 25  25 26  26 27  27 28  28 29  29 30  30 31  31 32  32 33  33 34  34 35  35 36  36 37  37 38  38 39  39 40  40 41  41 42  42 43  43 44  44 45  45 46  46 47  47 48  48 49  49 50  50 51  51 52  52 53  53 54  54 55  55 56  56 57  57 58  58 59  59 60  60 61  61 62  62 63  63 64  64 65  65 66  66 67  67 68  68 69  69 70  70 71  71 72  72 73  73 74  74 75  75 76  76 77  77 78  78 79  79 80  80 81  81 82  82 83  83 84  84 85  85 86  86 87  87 88  88 89  89 90  90 91  91 92  92 93  93 94  94 95  95 96  96 97  97 98  98 99  99 100  </DataArray>
<DataArray  type="UInt32"  Name="offsets"  format="ascii">2 4 6 8 10 12 14 16 18 20 22 24 26 28 30 32 34 36 38 40 42 44 46 48 50 52 54 56 58 60 62 64 66 68 70 72 74 76 78 80 82 84 86 88 90 92 94 96 98 100 102 104 106 108 110 112 114 116 118 120 122 124 126 128 130 132 134 136 138 140 142 144 146 148 150 152 154 156 158 160 162 164 166 168 170 172 174 176 178 180 182 184 186 188 190 192 194 196 198 200 </DataArray>
<DataArray  type="UInt8"  Name="types"  format="ascii">3 3 3 3 3 3 3 3 3 3 3 3 3 3 3 3 3 3 3 3 3 3 3 3 3 3 3 3 3 3 3 3 3 3 3 3 3 3 3 3 3 3 3 3 3 3 3 3 3 3 3 3 3 3 3 3 3 3 3 3 3 3 3 3 3 3 3 3 3 3 3 3 3 3 3 3 3 3 3 3 3 3 3 3 3 3 3 3 3 3 3 3 3 3 3 3 3 3 3 3 </DataArray>
</Cells>
<PointData  Scalars="f_14"> 
<DataArray  type="Float64"  Name="f_14"  format="ascii">2.7285805453401097e-57  6.9156294150452008e-57  3.2285761976404494e-56  1.5632126922678275e-55  7.5701778756461447e-55  3.6608575665237568e-54  1.7676909587396279e-53  8.5223962048192055e-53  4.1023698669554375e-52  1.9715648247607075e-51  9.4596580974743510e-51  4.5311917198815066e-50  2.1667361796208228e-49  1.0342836968856222e-48  4.9282900842433841e-48  2.3440026579014700e-47  1.1127738125077529e-46  5.2725866581311956e-46  2.4933830258108897e-45  1.1767451811001077e-44  5.5422103339953718e-44  2.6047674129723997e-43  1.2215681290341045e-42  5.7161790217639064e-42  2.6687570702546189e-41  1.2430887623296408e-40  5.7764221731071908e-40  2.6776400292921625e-39  1.2380940982564043e-38  5.7099709197642260e-38  2.6264087397397970e-37  1.2047780509115867e-36  5.5110570319474448e-36  2.5136876176168875e-35  1.1431420129741831e-34  5.1827937253886392e-34  2.3424117950880544e-33  1.0552543013728333e-32  4.7380834623231864e-32  2.1200941048667049e-31  9.4529532492909029e-31  4.1994333654529354e-30  1.8585455766898391e-29  8.1933422999475409e-29  3.5974743888581040e-28  1.5729813850003394e-27  6.8481967125604175e-27  2.9681779014948825e-26  1.2805470036099968e-25  5.4981954215199741e-25  2.3490219746002492e-24  9.9842449979470763e-24  4.2210361237656655e-23  1.7746314594164622e-22  7.4180011236414897e-22  3.0821511680992565e-21  1.2726293643831530e-20  5.2205589474595925e-20  2.1270522357821964e-19  8.6051170148747745e-19  3.4555405548760805e-18  1.3769239364897953e-17  5.4423074850596486e-17  2.1328938238550485e-16  8.2849675522345190e-16  3.1882889284799378e-15  1.2149713848583981e-14  4.5824454358886867e-14  1.7096866818499032e-13  6.3062480403517770e-13  2.2982047727180405e-12  8.2694397861852023e-12  2.9357313908320732e-11  1.0274647592010091e-10  3.5420717016260046e-10  1.2016724424738689e-09  4.0079094220908379e-09  1.3127449482381455e-08  4.2175526862612293e-08  1.3273978836170341e-07  4.0869252435969322e-07  1.2291065065499585e-06  3.6046708052445467e-06  1.0290841370885336e-05  2.8543536059872270e-05  7.6759594998421235e-05  1.9968927385503874e-04  5.0134501643044364e-04  1.2116541167640758e-03  2.8114210715641848e-03  6.2457142185239484e-03  1.3247369329226112e-02  2.6752126018951473e-02  5.1298461575136990e-02  9.3175323732727092e-02  1.5997067552632019e-01  2.5920764115709338e-01  3.9606165514347480e-01  5.7072186070541631e-01  7.7651683781857528e-01  1.0000000000000000e+00  </DataArray> 
</PointData> 
</Piece>
</UnstructuredGrid>
</VTKFile>