<?xml version="1.0"?>
<VTKFile type="UnstructuredGrid"  version="0.1"  >
<UnstructuredGrid>
<Piece  NumberOfPoints="101" NumberOfCells="100">
<Points>
<DataArray  type="Float64"  NumberOfComponents="3"  format="ascii">0 0 0  0.001 0 0  0.002 0 0  0.003 0 0  0.004 0 0  0.005 0 0  0.006000000000000001 0 0  0.007000000000000001 0 0  0.008 0 0  0.009000000000000001 0 0  0.01 0 0  0.011 0 0  0.012 0 0  0.013 0 0  0.014 0 0  0.015 0 0  0.016 0 0  0.017 0 0  0.018 0 0  0.019 0 0  0.02 0 0  0.021 0 0  0.022 0 0  0.023 0 0  0.024 0 0  0.025 0 0  0.026 0 0  0.027 0 0  0.028 0 0  0.029 0 0  0.03 0 0  0.031 0 0  0.032 0 0  0.033 0 0  0.034 0 0  0.035 0 0  0.036 0 0  0.03700000000000001 0 0  0.03800000000000001 0 0  0.03900000000000001 0 0  0.04 0 0  0.04100000000000001 0 0  0.042 0 0  0.043 0 0  0.044 0 0  0.045 0 0  0.04600000000000001 0 0  0.047 0 0  0.04800000000000001 0 0  0.049 0 0  0.05 0 0  0.051 0 0  0.052 0 0  0.05300000000000001 0 0  0.05400000000000001 0 0  0.055 0 0  0.05600000000000001 0 0  0.057 0 0  0.05800000000000001 0 0  0.059 0 0  0.06 0 0  0.06100000000000001 0 0  0.062 0 0  0.063 0 0  0.064 0 0  0.065 0 0  0.066 0 0  0.067 0 0  0.068 0 0  0.06900000000000001 0 0  0.07000000000000001 0 0  0.07100000000000001 0 0  0.07200000000000001 0 0  0.07300000000000001 0 0  0.07400000000000001 0 0  0.075 0 0  0.07600000000000001 0 0  0.077 0 0  0.07800000000000001 0 0  0.079 0 0  0.08 0 0  0.081 0 0  0.08200000000000002 0 0  0.083 0 0  0.08400000000000001 0 0  0.08500000000000001 0 0  0.08599999999999999 0 0  0.08700000000000001 0 0  0.08800000000000001 0 0  0.08900000000000001 0 0  0.09 0 0  0.091 0 0  0.09200000000000001 0 0  0.09300000000000001 0 0  0.094 0 0  0.095 0 0  0.09600000000000002 0 0  0.09700000000000002 0 0  0.098 0 0  0.099 0 0  0.1 0 0  </DataArray>
</Points>
<Cells>
<DataArray  type="UInt32"  Name="connectivity"  format="ascii">0 1  1 2  2 3  3 4  4 5  5 6  6 7  7 8  8 9  9 10  10 11  11 12  12 13  13 14  14 15  15 16  16 17  17 18  18 19  19 20  20 21  21 22  22 23  23 24  24 25  25 26  26 27  27 28  28 29  29 30  30 31  31 32  32 33  33 34  34 35  35 36  36 37  37 38  38 39  39 40  40 41  41 42  42 43  43 44  44 45  45 46  46 47  47 48  48 49  49 50  50 51  51 52  52 53  53 54  54 55  55 56  56 57  57 58  58 59  59 60  60 61  61 62  62 63  63 64  64 65  65 66  66 67  67 68  68 69  69 70  70 71  71 72  72 73  73 74  74 75  75 76  76 77  77 78  78 79  79 80  80 81  81 82  82 83  83 84  84 85  85 86  86 87  87 88  88 89  89 90  90 91  91 92  92 93  93 94  94 95  95 96  96 97  97 98  98 99  99 100  </DataArray>
<DataArray  type="UInt32"  Name="offsets"  format="ascii">2 4 6 8 10 12 14 16 18 20 22 24 26 28 30 32 34 36 38 40 42 44 46 48 50 52 54 56 58 60 62 64 66 68 70 72 74 76 78 80 82 84 86 88 90 92 94 96 98 100 102 104 106 108 110 112 114 116 118 120 122 124 126 128 130 132 134 136 138 140 142 144 146 148 150 152 154 156 158 160 162 164 166 168 170 172 174 176 178 180 182 184 186 188 190 192 194 196 198 200 </DataArray>
<DataArray  type="UInt8"  Name="types"  format="ascii">3 3 3 3 3 3 3 3 3 3 3 3 3 3 3 3 3 3 3 3 3 3 3 3 3 3 3 3 3 3 3 3 3 3 3 3 3 3 3 3 3 3 3 3 3 3 3 3 3 3 3 3 3 3 3 3 3 3 3 3 3 3 3 3 3 3 3 3 3 3 3 3 3 3 3 3 3 3 3 3 3 3 3 3 3 3 3 3 3 3 3 3 3 3 3 3 3 3 3 3 </DataArray>
</Cells>
<PointData  Scalars="f_14"> 
<DataArray  type="Float64"  Name="f_14"  format="ascii">6.6277756758088878e-04  6.6863963820756270e-04  6.8630040106089764e-04  7.1598401690528546e-04  7.5806577861051616e-04  8.1307464424676618e-04  8.8169677470482152e-04  9.6478006686118612e-04  1.0633396703633542e-03  1.1785644728887965e-03  1.3118245351777999e-03  1.4646794532051891e-03  1.6388876204944784e-03  1.8364163587513192e-03  2.0594528796693302e-03  2.3104160349161499e-03  2.5919688049248764e-03  2.9070314701891316e-03  3.2587954012918020e-03  3.6507373959016277e-03  4.0866344824729301e-03  4.5705791014182227e-03  5.1069945651398448e-03  5.7006506885660738e-03  6.3566794718131836e-03  7.0805907063743465e-03  7.8782873659184235e-03  8.7560806324787060e-03  9.7207043986476324e-03  1.0779329076504286e-02  1.1939574534533457e-02  1.3209521974904782e-02  1.4597724555332163e-02  1.6113216552499934e-02  1.7765520857898839e-02  1.9564654592043196e-02  2.1521132619621592e-02  2.3645968746346866e-02  2.5950674378294125e-02  2.8447254426516924e-02  3.1148200243872583e-02  3.4066479387415291e-02  3.7215522008561798e-02  4.0609203684615729e-02  4.4261824519239053e-02  4.8188084356157783e-02  5.2403053969817710e-02  5.6922142118874738e-02  6.1761058373295735e-02  6.6935771653391443e-02  7.2462464449220609e-02  7.8357482721346600e-02  8.4637281518737909e-02  9.1318366386455671e-02  9.8417230674423969e-02  1.0595028889873633e-01  1.1393380634829026e-01  1.2238382517169265e-01  1.3131608722195670e-01  1.4074595397907003e-01  1.5068832391263076e-01  1.6115754768791479e-01  1.7216734165849717e-01  1.8373070012637904e-01  1.9585980688596830e-01  2.0856594660073666e-01  2.2185941659040626e-01  2.3574943963165404e-01  2.5024407839607843e-01  2.6535015216514174e-01  2.8107315647257969e-01  2.9741718633001285e-01  3.1438486369091190e-01  3.3197726980140546e-01  3.5019388307351290e-01  3.6903252309711004e-01  3.8848930138126236e-01  4.0855857938350515e-01  4.2923293434736287e-01  4.5050313342399217e-01  4.7235811650368248e-01  4.9478498812727068e-01  5.1776901878685688e-01  5.4129365585995193e-01  5.6534054435195658e-01  5.8988955754924388e-01  6.1491883760981714e-01  6.4040484604121339e-01  6.6632242393682140e-01  6.9264486176287698e-01  7.1934397840985631e-01  7.4639020914471432e-01  7.7375270202515656e-01  8.0139942226477001e-01  8.2929726396912340e-01  8.5741216859866121e-01  8.8570924945507590e-01  9.1415292143453153e-01  9.4270703524420063e-01  9.7133501523863974e-01  1.0000000000000000e+00  </DataArray> 
</PointData> 
</Piece>
</UnstructuredGrid>
</VTKFile>