<?xml version="1.0"?>
<VTKFile type="UnstructuredGrid"  version="0.1"  >
<UnstructuredGrid>
<Piece  NumberOfPoints="101" NumberOfCells="100">
<Points>
<DataArray  type="Float64"  NumberOfComponents="3"  format="ascii">0 0 0  0.001 0 0  0.002 0 0  0.003 0 0  0.004 0 0  0.005 0 0  0.006000000000000001 0 0  0.007000000000000001 0 0  0.008 0 0  0.009000000000000001 0 0  0.01 0 0  0.011 0 0  0.012 0 0  0.013 0 0  0.014 0 0  0.015 0 0  0.016 0 0  0.017 0 0  0.018 0 0  0.019 0 0  0.02 0 0  0.021 0 0  0.022 0 0  0.023 0 0  0.024 0 0  0.025 0 0  0.026 0 0  0.027 0 0  0.028 0 0  0.029 0 0  0.03 0 0  0.031 0 0  0.032 0 0  0.033 0 0  0.034 0 0  0.035 0 0  0.036 0 0  0.03700000000000001 0 0  0.03800000000000001 0 0  0.03900000000000001 0 0  0.04 0 0  0.04100000000000001 0 0  0.042 0 0  0.043 0 0  0.044 0 0  0.045 0 0  0.04600000000000001 0 0  0.047 0 0  0.04800000000000001 0 0  0.049 0 0  0.05 0 0  0.051 0 0  0.052 0 0  0.05300000000000001 0 0  0.05400000000000001 0 0  0.055 0 0  0.05600000000000001 0 0  0.057 0 0  0.05800000000000001 0 0  0.059 0 0  0.06 0 0  0.06100000000000001 0 0  0.062 0 0  0.063 0 0  0.064 0 0  0.065 0 0  0.066 0 0  0.067 0 0  0.068 0 0  0.06900000000000001 0 0  0.07000000000000001 0 0  0.07100000000000001 0 0  0.07200000000000001 0 0  0.07300000000000001 0 0  0.07400000000000001 0 0  0.075 0 0  0.07600000000000001 0 0  0.077 0 0  0.07800000000000001 0 0  0.079 0 0  0.08 0 0  0.081 0 0  0.08200000000000002 0 0  0.083 0 0  0.08400000000000001 0 0  0.08500000000000001 0 0  0.08599999999999999 0 0  0.08700000000000001 0 0  0.08800000000000001 0 0  0.08900000000000001 0 0  0.09 0 0  0.091 0 0  0.09200000000000001 0 0  0.09300000000000001 0 0  0.094 0 0  0.095 0 0  0.09600000000000002 0 0  0.09700000000000002 0 0  0.098 0 0  0.099 0 0  0.1 0 0  </DataArray>
</Points>
<Cells>
<DataArray  type="UInt32"  Name="connectivity"  format="ascii">0 1  1 2  2 3  3 4  4 5  5 6  6 7  7 8  8 9  9 10  10 11  11 12  12 13  13 14  14 15  15 16  16 17  17 18  18 19  19 20  20 21  21 22  22 23  23 24  24 25  25 26  26 27  27 28  28 29  29 30  30 31  31 32  32 33  33 34  34 35  35 36  36 37  37 38  38 39  39 40  40 41  41 42  42 43  43 44  44 45  45 46  46 47  47 48  48 49  49 50  50 51  51 52  52 53  53 54  54 55  55 56  56 57  57 58  58 59  59 60  60 61  61 62  62 63  63 64  64 65  65 66  66 67  67 68  68 69  69 70  70 71  71 72  72 73  73 74  74 75  75 76  76 77  77 78  78 79  79 80  80 81  81 82  82 83  83 84  84 85  85 86  86 87  87 88  88 89  89 90  90 91  91 92  92 93  93 94  94 95  95 96  96 97  97 98  98 99  99 100  </DataArray>
<DataArray  type="UInt32"  Name="offsets"  format="ascii">2 4 6 8 10 12 14 16 18 20 22 24 26 28 30 32 34 36 38 40 42 44 46 48 50 52 54 56 58 60 62 64 66 68 70 72 74 76 78 80 82 84 86 88 90 92 94 96 98 100 102 104 106 108 110 112 114 116 118 120 122 124 126 128 130 132 134 136 138 140 142 144 146 148 150 152 154 156 158 160 162 164 166 168 170 172 174 176 178 180 182 184 186 188 190 192 194 196 198 200 </DataArray>
<DataArray  type="UInt8"  Name="types"  format="ascii">3 3 3 3 3 3 3 3 3 3 3 3 3 3 3 3 3 3 3 3 3 3 3 3 3 3 3 3 3 3 3 3 3 3 3 3 3 3 3 3 3 3 3 3 3 3 3 3 3 3 3 3 3 3 3 3 3 3 3 3 3 3 3 3 3 3 3 3 3 3 3 3 3 3 3 3 3 3 3 3 3 3 3 3 3 3 3 3 3 3 3 3 3 3 3 3 3 3 3 3 </DataArray>
</Cells>
<PointData  Scalars="f_14"> 
<DataArray  type="Float64"  Name="f_14"  format="ascii">3.2036600556102948e-13  3.6626182625004968e-13  5.1622008319714655e-13  8.1008825805084120e-13  1.3250825385926572e-12  2.1945369140030735e-12  3.6397679598443790e-12  6.0220017111269526e-12  9.9254557034026918e-12  1.6288937291248891e-11  2.6612825268204436e-11  4.3282686926565211e-11  7.0072454471535373e-11  1.1292255722499185e-10  1.8113677755729009e-10  2.8921321624901380e-10  4.5963013149514881e-10  7.2706149355533341e-10  1.1447209412817267e-09  1.7938559227197230e-09  2.7978770972618516e-09  4.3432679858920490e-09  6.7103534693303485e-09  1.0318317513445201e-08  1.5790690778089123e-08  2.4050064375717492e-08  3.6454273447046666e-08  5.4991055398721027e-08  8.2554639055991857e-08  1.2333639561371822e-07  1.8337325473589752e-07  2.7131290334161311e-07  3.9947488297842982e-07  5.8531285467504616e-07  8.5341703347074641e-07  1.2382389111257601e-06  1.7877749763675271e-06  2.5685145840612104e-06  3.6720420531622955e-06  5.2237873244325577e-06  7.3945460213694140e-06  1.0415541422919840e-05  1.4597980306221769e-05  2.0358263939961803e-05  2.8250255883235291e-05  3.9006279490791675e-05  5.3588818067461817e-05  7.3255214867622043e-05  9.9638010832678677e-05  1.3484390344774050e-04  1.8157464414901868e-04  2.4327349290383270e-04  3.2430108983061933e-04  4.3014475204776980e-04  5.6766522057227471e-04  7.4538472303809140e-04  9.7381983516239270e-04  1.2658619668055378e-03  1.6372073168585096e-03  2.1068367881931288e-03  2.6975445901322912e-03  3.4365120541107966e-03  4.3559205385578087e-03  5.4935942145551671e-03  6.8936600457831813e-03  8.6072084790631762e-03  1.0692934356830176e-02  1.3217733500757377e-02  1.6257226486499101e-02  1.9896177559886458e-02  2.4228773692710971e-02  2.9358726721160345e-02  3.5399160640918692e-02  4.2472246731980870e-02  5.0708551509736306e-02  6.0246066756659715e-02  7.1228897222492135e-02  8.3805590042105430e-02  9.8127100452947827e-02  1.1434440081840117e-01  1.3260575396769514e-01  1.5305368700138997e-01  1.7582171741146468e-01  2.0103089894413767e-01  2.2878626932548510e-01  2.5917329496001540e-01  2.9225441818073256e-01  3.2806581979914362e-01  3.6661451289303781e-01  4.0787588244160000e-01  4.5179177922547364e-01  4.9826926523695725e-01  5.4718009183096994e-01  5.9836097139658573e-01  6.5161467911009974e-01  7.0671199425290576e-01  7.6339446175191528e-01  8.2137792528568987e-01  8.8035675483624931e-01  9.4000866530218463e-01  1.0000000000000000e+00  </DataArray> 
</PointData> 
</Piece>
</UnstructuredGrid>
</VTKFile>