<?xml version="1.0"?>
<VTKFile type="UnstructuredGrid"  version="0.1"  >
<UnstructuredGrid>
<Piece  NumberOfPoints="101" NumberOfCells="100">
<Points>
<DataArray  type="Float64"  NumberOfComponents="3"  format="ascii">0 0 0  0.001 0 0  0.002 0 0  0.003 0 0  0.004 0 0  0.005 0 0  0.006000000000000001 0 0  0.007000000000000001 0 0  0.008 0 0  0.009000000000000001 0 0  0.01 0 0  0.011 0 0  0.012 0 0  0.013 0 0  0.014 0 0  0.015 0 0  0.016 0 0  0.017 0 0  0.018 0 0  0.019 0 0  0.02 0 0  0.021 0 0  0.022 0 0  0.023 0 0  0.024 0 0  0.025 0 0  0.026 0 0  0.027 0 0  0.028 0 0  0.029 0 0  0.03 0 0  0.031 0 0  0.032 0 0  0.033 0 0  0.034 0 0  0.035 0 0  0.036 0 0  0.03700000000000001 0 0  0.03800000000000001 0 0  0.03900000000000001 0 0  0.04 0 0  0.04100000000000001 0 0  0.042 0 0  0.043 0 0  0.044 0 0  0.045 0 0  0.04600000000000001 0 0  0.047 0 0  0.04800000000000001 0 0  0.049 0 0  0.05 0 0  0.051 0 0  0.052 0 0  0.05300000000000001 0 0  0.05400000000000001 0 0  0.055 0 0  0.05600000000000001 0 0  0.057 0 0  0.05800000000000001 0 0  0.059 0 0  0.06 0 0  0.06100000000000001 0 0  0.062 0 0  0.063 0 0  0.064 0 0  0.065 0 0  0.066 0 0  0.067 0 0  0.068 0 0  0.06900000000000001 0 0  0.07000000000000001 0 0  0.07100000000000001 0 0  0.07200000000000001 0 0  0.07300000000000001 0 0  0.07400000000000001 0 0  0.075 0 0  0.07600000000000001 0 0  0.077 0 0  0.07800000000000001 0 0  0.079 0 0  0.08 0 0  0.081 0 0  0.08200000000000002 0 0  0.083 0 0  0.08400000000000001 0 0  0.08500000000000001 0 0  0.08599999999999999 0 0  0.08700000000000001 0 0  0.08800000000000001 0 0  0.08900000000000001 0 0  0.09 0 0  0.091 0 0  0.09200000000000001 0 0  0.09300000000000001 0 0  0.094 0 0  0.095 0 0  0.09600000000000002 0 0  0.09700000000000002 0 0  0.098 0 0  0.099 0 0  0.1 0 0  </DataArray>
</Points>
<Cells>
<DataArray  type="UInt32"  Name="connectivity"  format="ascii">0 1  1 2  2 3  3 4  4 5  5 6  6 7  7 8  8 9  9 10  10 11  11 12  12 13  13 14  14 15  15 16  16 17  17 18  18 19  19 20  20 21  21 22  22 23  23 24  24 25  25 26  26 27  27 28  28 29  29 30  30 31  31 32  32 33  33 34  34 35  35 36  36 37  37 38  38 39  39 40  40 41  41 42  42 43  43 44  44 45  45 46  46 47  47 48  48 49  49 50  50 51  51 52  52 53  53 54  54 55  55 56  56 57  57 58  58 59  59 60  60 61  61 62  62 63  63 64  64 65  65 66  66 67  67 68  68 69  69 70  70 71  71 72  72 73  73 74  74 75  75 76  76 77  77 78  78 79  79 80  80 81  81 82  82 83  83 84  84 85  85 86  86 87  87 88  88 89  89 90  90 91  91 92  92 93  93 94  94 95  95 96  96 97  97 98  98 99  99 100  </DataArray>
<DataArray  type="UInt32"  Name="offsets"  format="ascii">2 4 6 8 10 12 14 16 18 20 22 24 26 28 30 32 34 36 38 40 42 44 46 48 50 52 54 56 58 60 62 64 66 68 70 72 74 76 78 80 82 84 86 88 90 92 94 96 98 100 102 104 106 108 110 112 114 116 118 120 122 124 126 128 130 132 134 136 138 140 142 144 146 148 150 152 154 156 158 160 162 164 166 168 170 172 174 176 178 180 182 184 186 188 190 192 194 196 198 200 </DataArray>
<DataArray  type="UInt8"  Name="types"  format="ascii">3 3 3 3 3 3 3 3 3 3 3 3 3 3 3 3 3 3 3 3 3 3 3 3 3 3 3 3 3 3 3 3 3 3 3 3 3 3 3 3 3 3 3 3 3 3 3 3 3 3 3 3 3 3 3 3 3 3 3 3 3 3 3 3 3 3 3 3 3 3 3 3 3 3 3 3 3 3 3 3 3 3 3 3 3 3 3 3 3 3 3 3 3 3 3 3 3 3 3 3 </DataArray>
</Cells>
<PointData  Scalars="f_14"> 
<DataArray  type="Float64"  Name="f_14"  format="ascii">3.3228113209010047e-07  3.4500529192275405e-07  3.8401913045875663e-07  4.5189283369903100e-07  5.5306568276059416e-07  6.9408635766978665e-07  8.8396324391226676e-07  1.1346390599199746e-06  1.4616088402001350e-06  1.8847054966116196e-06  2.4290829455605160e-06  3.1264332375218468e-06  4.0164813617920267e-06  5.1488095251648270e-06  6.5850718143855231e-06  8.4016703365359283e-06  1.0692975264634413e-05  1.3575183756761572e-05  1.7190926502935831e-05  2.1714745693363360e-05  2.7359584467592261e-05  3.4384445325932835e-05  4.3103393439344740e-05  5.3896100097255314e-05  6.7220141428505622e-05  8.3625287681696200e-05  1.0377003832975367e-04  1.2844067754204735e-04  1.5857314251094932e-04  1.9527801298002782e-04  2.3986894323271301e-04  2.9389486678022995e-04  3.5917630793833456e-04  4.3784613219971795e-04  5.3239505749489422e-04  6.4572222971642616e-04  7.8119113683777417e-04  9.4269109515093363e-04  1.1347044871620744e-03  1.3623798621787864e-03  1.6316109263795966e-03  1.9491213481475104e-03  2.3225551859010992e-03  2.7605726091238848e-03  3.2729504287320817e-03  3.8706867807684741e-03  4.5661091186540055e-03  5.3729844654777127e-03  6.3066306613527110e-03  7.3840271147318833e-03  8.6239233345511597e-03  1.0046943286713314e-02  1.1675683389077433e-02  1.3534801739842421e-02  1.5651095971741479e-02  1.8053566946099189e-02  2.0773465354283243e-02  2.3844318187420502e-02  2.7301931976531840e-02  3.1184369702401838e-02  3.5531898335073163e-02  4.0386904093675180e-02  4.5793772724240810e-02  5.1798732380828431e-02  5.8449657066679747e-02  6.5795829048510932e-02  7.3887659197438851e-02  8.2776364831283047e-02  9.2513605329364271e-02  1.0315107655417521e-01  1.1474006593355042e-01  1.2733097091876636e-01  1.4097278442248576e-01  1.5571255173754789e-01  1.7159480432333196e-01  1.8866097669934243e-01  2.0694881348334279e-01  2.2649177433093515e-01  2.4731844515229590e-01  2.6945196447797953e-01  2.9290947419913116e-01  3.1770160409999165e-01  3.4383199961727617e-01  3.7129690209022481e-01  4.0008479039951256e-01  4.3017609232983217e-01  4.6154297323193544e-01  4.9414920861233252e-01  5.2795014615507452e-01  5.6289276139751909e-01  5.9891580986287041e-01  6.3595007692331884e-01  6.7391872505915973e-01  7.1273773652495465e-01  7.5231644776939943e-01  7.9255817031823250e-01  8.3336089125671231e-01  8.7461804497666429e-01  9.1621934651775416e-01  9.5805167566569971e-01  1.0000000000000000e+00  </DataArray> 
</PointData> 
</Piece>
</UnstructuredGrid>
</VTKFile>