<?xml version="1.0"?>
<VTKFile type="UnstructuredGrid"  version="0.1"  >
<UnstructuredGrid>
<Piece  NumberOfPoints="101" NumberOfCells="100">
<Points>
<DataArray  type="Float64"  NumberOfComponents="3"  format="ascii">0 0 0  0.001 0 0  0.002 0 0  0.003 0 0  0.004 0 0  0.005 0 0  0.006000000000000001 0 0  0.007000000000000001 0 0  0.008 0 0  0.009000000000000001 0 0  0.01 0 0  0.011 0 0  0.012 0 0  0.013 0 0  0.014 0 0  0.015 0 0  0.016 0 0  0.017 0 0  0.018 0 0  0.019 0 0  0.02 0 0  0.021 0 0  0.022 0 0  0.023 0 0  0.024 0 0  0.025 0 0  0.026 0 0  0.027 0 0  0.028 0 0  0.029 0 0  0.03 0 0  0.031 0 0  0.032 0 0  0.033 0 0  0.034 0 0  0.035 0 0  0.036 0 0  0.03700000000000001 0 0  0.03800000000000001 0 0  0.03900000000000001 0 0  0.04 0 0  0.04100000000000001 0 0  0.042 0 0  0.043 0 0  0.044 0 0  0.045 0 0  0.04600000000000001 0 0  0.047 0 0  0.04800000000000001 0 0  0.049 0 0  0.05 0 0  0.051 0 0  0.052 0 0  0.05300000000000001 0 0  0.05400000000000001 0 0  0.055 0 0  0.05600000000000001 0 0  0.057 0 0  0.05800000000000001 0 0  0.059 0 0  0.06 0 0  0.06100000000000001 0 0  0.062 0 0  0.063 0 0  0.064 0 0  0.065 0 0  0.066 0 0  0.067 0 0  0.068 0 0  0.06900000000000001 0 0  0.07000000000000001 0 0  0.07100000000000001 0 0  0.07200000000000001 0 0  0.07300000000000001 0 0  0.07400000000000001 0 0  0.075 0 0  0.07600000000000001 0 0  0.077 0 0  0.07800000000000001 0 0  0.079 0 0  0.08 0 0  0.081 0 0  0.08200000000000002 0 0  0.083 0 0  0.08400000000000001 0 0  0.08500000000000001 0 0  0.08599999999999999 0 0  0.08700000000000001 0 0  0.08800000000000001 0 0  0.08900000000000001 0 0  0.09 0 0  0.091 0 0  0.09200000000000001 0 0  0.09300000000000001 0 0  0.094 0 0  0.095 0 0  0.09600000000000002 0 0  0.09700000000000002 0 0  0.098 0 0  0.099 0 0  0.1 0 0  </DataArray>
</Points>
<Cells>
<DataArray  type="UInt32"  Name="connectivity"  format="ascii">0 1  1 2  2 3  3 4  4 5  5 6  6 7  7 8  8 9  9 10  10 11  11 12  12 13  13 14  14 15  15 16  16 17  17 18  18 19  19 20  20 21  21 22  22 23  23 24  24 25  25 26  26 27  27 28  28 29  29 30  30 31  31 32  32 33  33 34  34 35  35 36  36 37  37 38  38 39  39 40  40 41  41 42  42 43  43 44  44 45  45 46  46 47  47 48  48 49  49 50  50 51  51 52  52 53  53 54  54 55  55 56  56 57  57 58  58 59  59 60  60 61  61 62  62 63  63 64  64 65  65 66  66 67  67 68  68 69  69 70  70 71  71 72  72 73  73 74  74 75  75 76  76 77  77 78  78 79  79 80  80 81  81 82  82 83  83 84  84 85  85 86  86 87  87 88  88 89  89 90  90 91  91 92  92 93  93 94  94 95  95 96  96 97  97 98  98 99  99 100  </DataArray>
<DataArray  type="UInt32"  Name="offsets"  format="ascii">2 4 6 8 10 12 14 16 18 20 22 24 26 28 30 32 34 36 38 40 42 44 46 48 50 52 54 56 58 60 62 64 66 68 70 72 74 76 78 80 82 84 86 88 90 92 94 96 98 100 102 104 106 108 110 112 114 116 118 120 122 124 126 128 130 132 134 136 138 140 142 144 146 148 150 152 154 156 158 160 162 164 166 168 170 172 174 176 178 180 182 184 186 188 190 192 194 196 198 200 </DataArray>
<DataArray  type="UInt8"  Name="types"  format="ascii">3 3 3 3 3 3 3 3 3 3 3 3 3 3 3 3 3 3 3 3 3 3 3 3 3 3 3 3 3 3 3 3 3 3 3 3 3 3 3 3 3 3 3 3 3 3 3 3 3 3 3 3 3 3 3 3 3 3 3 3 3 3 3 3 3 3 3 3 3 3 3 3 3 3 3 3 3 3 3 3 3 3 3 3 3 3 3 3 3 3 3 3 3 3 3 3 3 3 3 3 </DataArray>
</Cells>
<PointData  Scalars="f_14"> 
<DataArray  type="Float64"  Name="f_14"  format="ascii">2.0394755115048911e-05  2.0797030149737190e-05  2.2016702539709720e-05  2.4092616658055022e-05  2.7090525553259935e-05  3.1104623724501645e-05  3.6259721232799049e-05  4.2714087265101786e-05  5.0662999136173770e-05  6.0343040438517736e-05  7.2037199582057696e-05  8.6080827239765569e-05  1.0286851815651278e-04  1.2286198929494711e-04  1.4659903227681690e-04  1.7470362340644494e-04  2.0789727909278777e-04  2.4701174805745924e-04  2.9300313415022762e-04  3.4696754469569165e-04  4.1015835885426459e-04  4.8400520827259359e-04  5.7013475808735214e-04  6.7039336988846537e-04  7.8687171929617402e-04  9.2193142911529415e-04  1.0782337643610975e-03  1.2587704175797099e-03  1.4668963916082550e-03  1.7063649620615642e-03  1.9813646732564742e-03  2.2965582889016090e-03  2.6571235826564452e-03  3.0687958136309153e-03  3.5379116881632021e-03  4.0714545619714741e-03  4.6771005863103909e-03  5.3632654484620026e-03  6.1391513012470549e-03  7.0147934188629583e-03  8.0011060579605591e-03  9.1099269443010653e-03  1.0354059747538962e-02  1.1747313850719258e-02  1.3304540668119803e-02  1.5041665716368722e-02  1.6975715600652246e-02  1.9124839041687859e-02  2.1508321041399860e-02  2.4146589267330439e-02  2.7061211729174799e-02  3.0274884826807423e-02  3.3811410869064175e-02  3.7695664197526332e-02  4.1953545100638895e-02  4.6611920771508428e-02  5.1698552648264243e-02  5.7242009579259297e-02  6.3271566376676316e-02  6.9817087460987221e-02  7.6908895454564502e-02  8.4577624754528444e-02  9.2854060301254260e-02  1.0176896195806147e-01  1.1135287512728952e-01  1.2163592844569396e-01  1.3264761962495575e-01  1.4441659072787572e-01  1.5697039439401056e-01  1.7033525274635852e-01  1.8453581091931312e-01  1.9959488734344702e-01  2.1553322310071757e-01  2.3236923282039315e-01  2.5011875971750958e-01  2.6879483747832889e-01  2.8840746176772358e-01  3.0896337416869907e-01  3.3046586136190881e-01  3.5291457231103329e-01  3.7630535613703214e-01  4.0063012323978875e-01  4.2587673205971738e-01  4.5202890366522558e-01  4.7906616610617647e-01  5.0696383019096991e-01  5.3569299802873604e-01  5.6522060533217511e-01  5.9550949810531539e-01  6.2651854394902307e-01  6.5820277781102399e-01  6.9051358159264464e-01  7.2339889660770451e-01  7.5680346747664085e-01  7.9066911563758857e-01  8.2493504027238163e-01  8.5953814408565976e-01  8.9441338104554968e-01  9.2949412290030631e-01  9.6471254103198456e-01  1.0000000000000000e+00  </DataArray> 
</PointData> 
</Piece>
</UnstructuredGrid>
</VTKFile>