<?xml version="1.0"?>
<VTKFile type="UnstructuredGrid"  version="0.1"  >
<UnstructuredGrid>
<Piece  NumberOfPoints="101" NumberOfCells="100">
<Points>
<DataArray  type="Float64"  NumberOfComponents="3"  format="ascii">0 0 0  0.001 0 0  0.002 0 0  0.003 0 0  0.004 0 0  0.005 0 0  0.006000000000000001 0 0  0.007000000000000001 0 0  0.008 0 0  0.009000000000000001 0 0  0.01 0 0  0.011 0 0  0.012 0 0  0.013 0 0  0.014 0 0  0.015 0 0  0.016 0 0  0.017 0 0  0.018 0 0  0.019 0 0  0.02 0 0  0.021 0 0  0.022 0 0  0.023 0 0  0.024 0 0  0.025 0 0  0.026 0 0  0.027 0 0  0.028 0 0  0.029 0 0  0.03 0 0  0.031 0 0  0.032 0 0  0.033 0 0  0.034 0 0  0.035 0 0  0.036 0 0  0.03700000000000001 0 0  0.03800000000000001 0 0  0.03900000000000001 0 0  0.04 0 0  0.04100000000000001 0 0  0.042 0 0  0.043 0 0  0.044 0 0  0.045 0 0  0.04600000000000001 0 0  0.047 0 0  0.04800000000000001 0 0  0.049 0 0  0.05 0 0  0.051 0 0  0.052 0 0  0.05300000000000001 0 0  0.05400000000000001 0 0  0.055 0 0  0.05600000000000001 0 0  0.057 0 0  0.05800000000000001 0 0  0.059 0 0  0.06 0 0  0.06100000000000001 0 0  0.062 0 0  0.063 0 0  0.064 0 0  0.065 0 0  0.066 0 0  0.067 0 0  0.068 0 0  0.06900000000000001 0 0  0.07000000000000001 0 0  0.07100000000000001 0 0  0.07200000000000001 0 0  0.07300000000000001 0 0  0.07400000000000001 0 0  0.075 0 0  0.07600000000000001 0 0  0.077 0 0  0.07800000000000001 0 0  0.079 0 0  0.08 0 0  0.081 0 0  0.08200000000000002 0 0  0.083 0 0  0.08400000000000001 0 0  0.08500000000000001 0 0  0.08599999999999999 0 0  0.08700000000000001 0 0  0.08800000000000001 0 0  0.08900000000000001 0 0  0.09 0 0  0.091 0 0  0.09200000000000001 0 0  0.09300000000000001 0 0  0.094 0 0  0.095 0 0  0.09600000000000002 0 0  0.09700000000000002 0 0  0.098 0 0  0.099 0 0  0.1 0 0  </DataArray>
</Points>
<Cells>
<DataArray  type="UInt32"  Name="connectivity"  format="ascii">0 1  1 2  2 3  3 4  4 5  5 6  6 7  7 8  8 9  9 10  10 11  11 12  12 13  13 14  14 15  15 16  16 17  17 18  18 19  19 20  20 21  21 22  22 23  23 24  24 25  25 26  26 27  27 28  28 29  29 30  30 31  31 32  32 33  33 34  34 35  35 36  36 37  37 38  38 39  39 40  40 41  41 42  42 43  43 44  44 45  45 46  46 47  47 48  48 49  49 50  50 51  51 52  52 53  53 54  54 55  55 56  56 57  57 58  58 59  59 60  60 61  61 62  62 63  63 64  64 65  65 66  66 67  67 68  68 69  69 70  70 71  71 72  72 73  73 74  74 75  75 76  76 77  77 78  78 79  79 80  80 81  81 82  82 83  83 84  84 85  85 86  86 87  87 88  88 89  89 90  90 91  91 92  92 93  93 94  94 95  95 96  96 97  97 98  98 99  99 100  </DataArray>
<DataArray  type="UInt32"  Name="offsets"  format="ascii">2 4 6 8 10 12 14 16 18 20 22 24 26 28 30 32 34 36 38 40 42 44 46 48 50 52 54 56 58 60 62 64 66 68 70 72 74 76 78 80 82 84 86 88 90 92 94 96 98 100 102 104 106 108 110 112 114 116 118 120 122 124 126 128 130 132 134 136 138 140 142 144 146 148 150 152 154 156 158 160 162 164 166 168 170 172 174 176 178 180 182 184 186 188 190 192 194 196 198 200 </DataArray>
<DataArray  type="UInt8"  Name="types"  format="ascii">3 3 3 3 3 3 3 3 3 3 3 3 3 3 3 3 3 3 3 3 3 3 3 3 3 3 3 3 3 3 3 3 3 3 3 3 3 3 3 3 3 3 3 3 3 3 3 3 3 3 3 3 3 3 3 3 3 3 3 3 3 3 3 3 3 3 3 3 3 3 3 3 3 3 3 3 3 3 3 3 3 3 3 3 3 3 3 3 3 3 3 3 3 3 3 3 3 3 3 3 </DataArray>
</Cells>
<PointData  Scalars="f_14"> 
<DataArray  type="Float64"  Name="f_14"  format="ascii">1.3415674408692872e-12  1.5154514895374361e-12  2.0789827978336577e-12  3.1670796167664749e-12  5.0374097674575074e-12  8.1264708993641230e-12  1.3143111243139217e-11  2.1217638011203091e-11  3.4134865832254396e-11  5.4694440184379810e-11  8.7263871124178999e-11  1.3862227093631067e-10  2.1924056709050192e-10  3.4521371737833957e-10  5.4116172475311601e-10  8.4456240738136488e-10  1.3121885441121077e-09  2.0296209265642595e-09  3.1252323258239913e-09  4.7906335209399609e-09  7.3104063225221605e-09  1.1105107054814346e-08  1.6793123001461846e-08  2.5279156435414849e-08  3.7880095312032611e-08  5.6503064392560278e-08  8.3895866027925170e-08  1.2399723549357867e-07  1.8242387820215794e-07  2.6714377904488697e-07  3.8940157939114191e-07  5.6498287589297836e-07  8.1593126659195365e-07  1.1728662170649782e-06  1.6780929177786220e-06  2.3897490384521017e-06  3.3872996327034478e-06  4.7787725355162055e-06  6.7102246412657943e-06  9.3780466486313560e-06  1.3044852247419438e-05  1.8059858984062693e-05  2.4884853258362072e-05  3.4127041246092872e-05  4.6580319907129200e-05  6.3276754825723216e-05  8.5550319471345665e-05  1.1511522593474743e-04  1.5416144949162081e-04  2.0547030405331944e-04  2.7255314424304245e-04  3.5981642978322534e-04  4.7275646207783125e-04  6.1818706021389449e-04  8.0450324946428607e-04  1.0419836525943596e-03  1.3431336646457053e-03  1.7230706181068504e-03  2.1999509736523202e-03  2.7954380745907198e-03  3.5352071634187363e-03  4.4494821727754314e-03  5.5735962846209701e-03  6.9485654360456617e-03  8.6216608979595554e-03  1.0646963851609150e-02  1.3085881653810897e-02  1.6007602360085558e-02  1.9489461237334652e-02  2.3617190638661693e-02  2.8485022942715196e-02  3.4195615495801780e-02  4.0859766849943732e-02  4.8595895259377922e-02  5.7529253544705720e-02  6.7790859173220433e-02  7.9516124788136841e-02  9.2843182424041423e-02  1.0791090415841995e-01  1.2485663276160211e-01  1.4381364771390093e-01  1.6490840435808976e-01  1.8825759646152970e-01  2.1396510452001863e-01  2.4211890314355095e-01  2.7278801020368493e-01  3.0601956748965936e-01  3.4183614686337666e-01  3.8023337685717612e-01  4.2117798198053569e-01  4.6460632050258671e-01  5.1042349614332605e-01  5.5850310511531254e-01  6.0868766268269903e-01  6.6078973340674363e-01  7.1459376725621626e-01  7.6985862064487709e-01  8.2632071818094655e-01  8.8369778848802572e-01  9.4169308689088393e-01  1.0000000000000000e+00  </DataArray> 
</PointData> 
</Piece>
</UnstructuredGrid>
</VTKFile>