<?xml version="1.0"?>
<VTKFile type="UnstructuredGrid"  version="0.1"  >
<UnstructuredGrid>
<Piece  NumberOfPoints="101" NumberOfCells="100">
<Points>
<DataArray  type="Float64"  NumberOfComponents="3"  format="ascii">0 0 0  0.001 0 0  0.002 0 0  0.003 0 0  0.004 0 0  0.005 0 0  0.006000000000000001 0 0  0.007000000000000001 0 0  0.008 0 0  0.009000000000000001 0 0  0.01 0 0  0.011 0 0  0.012 0 0  0.013 0 0  0.014 0 0  0.015 0 0  0.016 0 0  0.017 0 0  0.018 0 0  0.019 0 0  0.02 0 0  0.021 0 0  0.022 0 0  0.023 0 0  0.024 0 0  0.025 0 0  0.026 0 0  0.027 0 0  0.028 0 0  0.029 0 0  0.03 0 0  0.031 0 0  0.032 0 0  0.033 0 0  0.034 0 0  0.035 0 0  0.036 0 0  0.03700000000000001 0 0  0.03800000000000001 0 0  0.03900000000000001 0 0  0.04 0 0  0.04100000000000001 0 0  0.042 0 0  0.043 0 0  0.044 0 0  0.045 0 0  0.04600000000000001 0 0  0.047 0 0  0.04800000000000001 0 0  0.049 0 0  0.05 0 0  0.051 0 0  0.052 0 0  0.05300000000000001 0 0  0.05400000000000001 0 0  0.055 0 0  0.05600000000000001 0 0  0.057 0 0  0.05800000000000001 0 0  0.059 0 0  0.06 0 0  0.06100000000000001 0 0  0.062 0 0  0.063 0 0  0.064 0 0  0.065 0 0  0.066 0 0  0.067 0 0  0.068 0 0  0.06900000000000001 0 0  0.07000000000000001 0 0  0.07100000000000001 0 0  0.07200000000000001 0 0  0.07300000000000001 0 0  0.07400000000000001 0 0  0.075 0 0  0.07600000000000001 0 0  0.077 0 0  0.07800000000000001 0 0  0.079 0 0  0.08 0 0  0.081 0 0  0.08200000000000002 0 0  0.083 0 0  0.08400000000000001 0 0  0.08500000000000001 0 0  0.08599999999999999 0 0  0.08700000000000001 0 0  0.08800000000000001 0 0  0.08900000000000001 0 0  0.09 0 0  0.091 0 0  0.09200000000000001 0 0  0.09300000000000001 0 0  0.094 0 0  0.095 0 0  0.09600000000000002 0 0  0.09700000000000002 0 0  0.098 0 0  0.099 0 0  0.1 0 0  </DataArray>
</Points>
<Cells>
<DataArray  type="UInt32"  Name="connectivity"  format="ascii">0 1  1 2  2 3  3 4  4 5  5 6  6 7  7 8  8 9  9 10  10 11  11 12  12 13  13 14  14 15  15 16  16 17  17 18  18 19  19 20  20 21  21 22  22 23  23 24  24 25  25 26  26 27  27 28  28 29  29 30  30 31  31 32  32 33  33 34  34 35  35 36  36 37  37 38  38 39  39 40  40 41  41 42  42 43  43 44  44 45  45 46  46 47  47 48  48 49  49 50  50 51  51 52  52 53  53 54  54 55  55 56  56 57  57 58  58 59  59 60  60 61  61 62  62 63  63 64  64 65  65 66  66 67  67 68  68 69  69 70  70 71  71 72  72 73  73 74  74 75  75 76  76 77  77 78  78 79  79 80  80 81  81 82  82 83  83 84  84 85  85 86  86 87  87 88  88 89  89 90  90 91  91 92  92 93  93 94  94 95  95 96  96 97  97 98  98 99  99 100  </DataArray>
<DataArray  type="UInt32"  Name="offsets"  format="ascii">2 4 6 8 10 12 14 16 18 20 22 24 26 28 30 32 34 36 38 40 42 44 46 48 50 52 54 56 58 60 62 64 66 68 70 72 74 76 78 80 82 84 86 88 90 92 94 96 98 100 102 104 106 108 110 112 114 116 118 120 122 124 126 128 130 132 134 136 138 140 142 144 146 148 150 152 154 156 158 160 162 164 166 168 170 172 174 176 178 180 182 184 186 188 190 192 194 196 198 200 </DataArray>
<DataArray  type="UInt8"  Name="types"  format="ascii">3 3 3 3 3 3 3 3 3 3 3 3 3 3 3 3 3 3 3 3 3 3 3 3 3 3 3 3 3 3 3 3 3 3 3 3 3 3 3 3 3 3 3 3 3 3 3 3 3 3 3 3 3 3 3 3 3 3 3 3 3 3 3 3 3 3 3 3 3 3 3 3 3 3 3 3 3 3 3 3 3 3 3 3 3 3 3 3 3 3 3 3 3 3 3 3 3 3 3 3 </DataArray>
</Cells>
<PointData  Scalars="f_14"> 
<DataArray  type="Float64"  Name="f_14"  format="ascii">3.7736112149999460e-08  3.9643781973667828e-08  4.5536823255962649e-08  5.5938305391225972e-08  7.1764064253231578e-08  9.4391644137333589e-08  1.2576267407077865e-07  1.6852485295011998e-07  2.2622194337166313e-07  3.0354276029116009e-07  4.0664318420471723e-07  5.4355883504042829e-07  7.2473032843812020e-07  9.6366812783958550e-07  1.2777900426887877e-06  1.6894715553644600e-06  2.2273575481150214e-06  2.9279938159399854e-06  3.8378481677979294e-06  5.0158041144494888e-06  6.5362252909078663e-06  8.4927060284875330e-06  1.1002643019828450e-05  1.4212784923448221e-05  1.8305941102034123e-05  2.3509057491474229e-05  3.0102896789614249e-05  3.8433591572834917e-05  4.8926372315157226e-05  6.2101807178751783e-05  7.8594926282590357e-05  9.9177639166139425e-05  1.2478488936592849e-04  1.5654502320251580e-04  1.9581487957461753e-04  2.4422013205835456e-04  3.0370143193259150e-04  3.7656690865885947e-04  4.6555158035831260e-04  5.7388420825978516e-04  7.0536209308804732e-04  8.6443425496250973e-04  1.0562933586042431e-03  1.2869766396014677e-03  1.5634759524553671e-03  1.8938568947492202e-03  2.2873867621732323e-03  2.7546708550714675e-03  3.3077963882686989e-03  3.9604829528124639e-03  4.7282381427574179e-03  5.6285165954159007e-03  6.6808803043092967e-03  7.9071576567177632e-03  9.3315982302943218e-03  1.0981019965473101e-02  1.2884944923856593e-02  1.5075719460506733e-02  1.7588614294601960e-02  2.0461899673911023e-02  2.3736890610429655e-02  2.7457957034121978e-02  3.1672493685639014e-02  3.6430844663006660e-02  4.1786177766019110e-02  4.7794304157762403e-02  5.4513439394799482e-02  6.2003902572024927e-02  7.0327751186779752e-02  7.9548350346446278e-02  8.9729876116075011e-02  1.0093675411363937e-01  1.1323303589045954e-01  1.2668171715755869e-01  1.4134400350400450e-01  1.5727853086431928e-01  1.7454054958806053e-01  1.9318108250143337e-01  2.1324606878174454e-01  2.3477550674302614e-01  2.5780260970827501e-01  2.8235298997545022e-01  3.0844388642963044e-01  3.3608345157680719e-01  3.6527011364716289e-01  3.9599202891718671e-01  4.2822663852034226e-01  4.6194034275550050e-01  4.9708830427272260e-01  5.3361438954051599e-01  5.7145125571206390e-01  6.1052058745584292e-01  6.5073348555390276e-01  6.9199100616294318e-01  7.3418484664985117e-01  7.7719817092995935e-01  8.2090656433071152e-01  8.6517910525329578e-01  9.0987953838513114e-01  9.5486753199675223e-01  1.0000000000000000e+00  </DataArray> 
</PointData> 
</Piece>
</UnstructuredGrid>
</VTKFile>