<?xml version="1.0"?>
<VTKFile type="UnstructuredGrid"  version="0.1"  >
<UnstructuredGrid>
<Piece  NumberOfPoints="101" NumberOfCells="100">
<Points>
<DataArray  type="Float64"  NumberOfComponents="3"  format="ascii">0 0 0  0.001 0 0  0.002 0 0  0.003 0 0  0.004 0 0  0.005 0 0  0.006000000000000001 0 0  0.007000000000000001 0 0  0.008 0 0  0.009000000000000001 0 0  0.01 0 0  0.011 0 0  0.012 0 0  0.013 0 0  0.014 0 0  0.015 0 0  0.016 0 0  0.017 0 0  0.018 0 0  0.019 0 0  0.02 0 0  0.021 0 0  0.022 0 0  0.023 0 0  0.024 0 0  0.025 0 0  0.026 0 0  0.027 0 0  0.028 0 0  0.029 0 0  0.03 0 0  0.031 0 0  0.032 0 0  0.033 0 0  0.034 0 0  0.035 0 0  0.036 0 0  0.03700000000000001 0 0  0.03800000000000001 0 0  0.03900000000000001 0 0  0.04 0 0  0.04100000000000001 0 0  0.042 0 0  0.043 0 0  0.044 0 0  0.045 0 0  0.04600000000000001 0 0  0.047 0 0  0.04800000000000001 0 0  0.049 0 0  0.05 0 0  0.051 0 0  0.052 0 0  0.05300000000000001 0 0  0.05400000000000001 0 0  0.055 0 0  0.05600000000000001 0 0  0.057 0 0  0.05800000000000001 0 0  0.059 0 0  0.06 0 0  0.06100000000000001 0 0  0.062 0 0  0.063 0 0  0.064 0 0  0.065 0 0  0.066 0 0  0.067 0 0  0.068 0 0  0.06900000000000001 0 0  0.07000000000000001 0 0  0.07100000000000001 0 0  0.07200000000000001 0 0  0.07300000000000001 0 0  0.07400000000000001 0 0  0.075 0 0  0.07600000000000001 0 0  0.077 0 0  0.07800000000000001 0 0  0.079 0 0  0.08 0 0  0.081 0 0  0.08200000000000002 0 0  0.083 0 0  0.08400000000000001 0 0  0.08500000000000001 0 0  0.08599999999999999 0 0  0.08700000000000001 0 0  0.08800000000000001 0 0  0.08900000000000001 0 0  0.09 0 0  0.091 0 0  0.09200000000000001 0 0  0.09300000000000001 0 0  0.094 0 0  0.095 0 0  0.09600000000000002 0 0  0.09700000000000002 0 0  0.098 0 0  0.099 0 0  0.1 0 0  </DataArray>
</Points>
<Cells>
<DataArray  type="UInt32"  Name="connectivity"  format="ascii">0 1  1 2  2 3  3 4  4 5  5 6  6 7  7 8  8 9  9 10  10 11  11 12  12 13  13 14  14 15  15 16  16 17  17 18  18 19  19 20  20 21  21 22  22 23  23 24  24 25  25 26  26 27  27 28  28 29  29 30  30 31  31 32  32 33  33 34  34 35  35 36  36 37  37 38  38 39  39 40  40 41  41 42  42 43  43 44  44 45  45 46  46 47  47 48  48 49  49 50  50 51  51 52  52 53  53 54  54 55  55 56  56 57  57 58  58 59  59 60  60 61  61 62  62 63  63 64  64 65  65 66  66 67  67 68  68 69  69 70  70 71  71 72  72 73  73 74  74 75  75 76  76 77  77 78  78 79  79 80  80 81  81 82  82 83  83 84  84 85  85 86  86 87  87 88  88 89  89 90  90 91  91 92  92 93  93 94  94 95  95 96  96 97  97 98  98 99  99 100  </DataArray>
<DataArray  type="UInt32"  Name="offsets"  format="ascii">2 4 6 8 10 12 14 16 18 20 22 24 26 28 30 32 34 36 38 40 42 44 46 48 50 52 54 56 58 60 62 64 66 68 70 72 74 76 78 80 82 84 86 88 90 92 94 96 98 100 102 104 106 108 110 112 114 116 118 120 122 124 126 128 130 132 134 136 138 140 142 144 146 148 150 152 154 156 158 160 162 164 166 168 170 172 174 176 178 180 182 184 186 188 190 192 194 196 198 200 </DataArray>
<DataArray  type="UInt8"  Name="types"  format="ascii">3 3 3 3 3 3 3 3 3 3 3 3 3 3 3 3 3 3 3 3 3 3 3 3 3 3 3 3 3 3 3 3 3 3 3 3 3 3 3 3 3 3 3 3 3 3 3 3 3 3 3 3 3 3 3 3 3 3 3 3 3 3 3 3 3 3 3 3 3 3 3 3 3 3 3 3 3 3 3 3 3 3 3 3 3 3 3 3 3 3 3 3 3 3 3 3 3 3 3 3 </DataArray>
</Cells>
<PointData  Scalars="f_14"> 
<DataArray  type="Float64"  Name="f_14"  format="ascii">1.0267725031573652e-03  1.0347717546789871e-03  1.0588569271185533e-03  1.0992907398452638e-03  1.1565126090303593e-03  1.2311409667121311e-03  1.3239764938712765e-03  1.4360062537205555e-03  1.5684087072168277e-03  1.7225595884233379e-03  1.9000386127516267e-03  2.1026369862656453e-03  2.3323656791105732e-03  2.5914644207158796e-03  2.8824113687028734e-03  3.2079333973947309e-03  3.5710169454824365e-03  3.9749193557516993e-03  4.4231806328406138e-03  4.9196355378010228e-03  5.4684259308127904e-03  6.0740132657932646e-03  6.7411911329070973e-03  7.4750977371769037e-03  8.2812281935945847e-03  9.1654465114174299e-03  1.0133997132791896e-02  1.1193515883578819e-02  1.2351040187362359e-02  1.3614018387223061e-02  1.4990318014061184e-02  1.6488232835192664e-02  1.8116488512732766e-02  1.9884246698060503e-02  2.1801107386548516e-02  2.3877109355876676e-02  2.6122728511748107e-02  2.8548873966813423e-02  3.1166881682196532e-02  3.3988505506307554e-02  3.7025905452719249e-02  4.0291633067853383e-02  4.3798613750137078e-02  4.7560125895198341e-02  5.1589776756597081e-02  5.5901474928550271e-02  6.0509399376085682e-02  6.5427964959011306e-02  7.0671784418958994e-02  7.6255626823448511e-02  8.2194372487321393e-02  8.8502964419848909e-02  9.5196356375171765e-02  1.0228945761426447e-01  1.0979707451812043e-01  1.1773384922406718e-01  1.2611419548977124e-01  1.3495223202227996e-01  1.4426171354206455e-01  1.5405595988412396e-01  1.6434778346946377e-01  1.7514941551028948e-01  1.8647243134071778e-01  1.9832767529132947e-01  2.1072518555010139e-01  2.2367411947383259e-01  2.3718267983274186e-01  2.5125804248617251e-01  2.6590628599896604e-01  2.8113232371579988e-01  2.9693983881436742e-01  3.1333122285751436e-01  3.3030751835914923e-01  3.4786836586880793e-01  3.6601195606507336e-01  3.8473498732861977e-01  4.0403262924147448e-01  4.2389849243024003e-01  4.4432460513765659e-01  4.6530139686912148e-01  4.8681768941895720e-01  5.0886069553550806e-01  5.3141602543499111e-01  5.5446770132174017e-01  5.7799818001754499e-01  6.0198838374563712e-01  6.2641773905605724e-01  6.5126422381915172e-01  6.7650442215337558e-01  7.0211358709303040e-01  7.2806571074154713e-01  7.5433360159714047e-01  7.8088896868061908e-01  8.0770251204046128e-01  8.3474401915850993e-01  8.6198246673133905e-01  8.8938612725801258e-01  9.1692267982507647e-01  9.4455932444458612e-01  9.7226289927118126e-01  1.0000000000000000e+00  </DataArray> 
</PointData> 
</Piece>
</UnstructuredGrid>
</VTKFile>