<?xml version="1.0"?>
<VTKFile type="UnstructuredGrid"  version="0.1"  >
<UnstructuredGrid>
<Piece  NumberOfPoints="101" NumberOfCells="100">
<Points>
<DataArray  type="Float64"  NumberOfComponents="3"  format="ascii">0 0 0  0.001 0 0  0.002 0 0  0.003 0 0  0.004 0 0  0.005 0 0  0.006000000000000001 0 0  0.007000000000000001 0 0  0.008 0 0  0.009000000000000001 0 0  0.01 0 0  0.011 0 0  0.012 0 0  0.013 0 0  0.014 0 0  0.015 0 0  0.016 0 0  0.017 0 0  0.018 0 0  0.019 0 0  0.02 0 0  0.021 0 0  0.022 0 0  0.023 0 0  0.024 0 0  0.025 0 0  0.026 0 0  0.027 0 0  0.028 0 0  0.029 0 0  0.03 0 0  0.031 0 0  0.032 0 0  0.033 0 0  0.034 0 0  0.035 0 0  0.036 0 0  0.03700000000000001 0 0  0.03800000000000001 0 0  0.03900000000000001 0 0  0.04 0 0  0.04100000000000001 0 0  0.042 0 0  0.043 0 0  0.044 0 0  0.045 0 0  0.04600000000000001 0 0  0.047 0 0  0.04800000000000001 0 0  0.049 0 0  0.05 0 0  0.051 0 0  0.052 0 0  0.05300000000000001 0 0  0.05400000000000001 0 0  0.055 0 0  0.05600000000000001 0 0  0.057 0 0  0.05800000000000001 0 0  0.059 0 0  0.06 0 0  0.06100000000000001 0 0  0.062 0 0  0.063 0 0  0.064 0 0  0.065 0 0  0.066 0 0  0.067 0 0  0.068 0 0  0.06900000000000001 0 0  0.07000000000000001 0 0  0.07100000000000001 0 0  0.07200000000000001 0 0  0.07300000000000001 0 0  0.07400000000000001 0 0  0.075 0 0  0.07600000000000001 0 0  0.077 0 0  0.07800000000000001 0 0  0.079 0 0  0.08 0 0  0.081 0 0  0.08200000000000002 0 0  0.083 0 0  0.08400000000000001 0 0  0.08500000000000001 0 0  0.08599999999999999 0 0  0.08700000000000001 0 0  0.08800000000000001 0 0  0.08900000000000001 0 0  0.09 0 0  0.091 0 0  0.09200000000000001 0 0  0.09300000000000001 0 0  0.094 0 0  0.095 0 0  0.09600000000000002 0 0  0.09700000000000002 0 0  0.098 0 0  0.099 0 0  0.1 0 0  </DataArray>
</Points>
<Cells>
<DataArray  type="UInt32"  Name="connectivity"  format="ascii">0 1  1 2  2 3  3 4  4 5  5 6  6 7  7 8  8 9  9 10  10 11  11 12  12 13  13 14  14 15  15 16  16 17  17 18  18 19  19 20  20 21  21 22  22 23  23 24  24 25  25 26  26 27  27 28  28 29  29 30  30 31  31 32  32 33  33 34  34 35  35 36  36 37  37 38  38 39  39 40  40 41  41 42  42 43  43 44  44 45  45 46  46 47  47 48  48 49  49 50  50 51  51 52  52 53  53 54  54 55  55 56  56 57  57 58  58 59  59 60  60 61  61 62  62 63  63 64  64 65  65 66  66 67  67 68  68 69  69 70  70 71  71 72  72 73  73 74  74 75  75 76  76 77  77 78  78 79  79 80  80 81  81 82  82 83  83 84  84 85  85 86  86 87  87 88  88 89  89 90  90 91  91 92  92 93  93 94  94 95  95 96  96 97  97 98  98 99  99 100  </DataArray>
<DataArray  type="UInt32"  Name="offsets"  format="ascii">2 4 6 8 10 12 14 16 18 20 22 24 26 28 30 32 34 36 38 40 42 44 46 48 50 52 54 56 58 60 62 64 66 68 70 72 74 76 78 80 82 84 86 88 90 92 94 96 98 100 102 104 106 108 110 112 114 116 118 120 122 124 126 128 130 132 134 136 138 140 142 144 146 148 150 152 154 156 158 160 162 164 166 168 170 172 174 176 178 180 182 184 186 188 190 192 194 196 198 200 </DataArray>
<DataArray  type="UInt8"  Name="types"  format="ascii">3 3 3 3 3 3 3 3 3 3 3 3 3 3 3 3 3 3 3 3 3 3 3 3 3 3 3 3 3 3 3 3 3 3 3 3 3 3 3 3 3 3 3 3 3 3 3 3 3 3 3 3 3 3 3 3 3 3 3 3 3 3 3 3 3 3 3 3 3 3 3 3 3 3 3 3 3 3 3 3 3 3 3 3 3 3 3 3 3 3 3 3 3 3 3 3 3 3 3 3 </DataArray>
</Cells>
<PointData  Scalars="f_14"> 
<DataArray  type="Float64"  Name="f_14"  format="ascii">8.1267956741645940e-12  9.0475731474444984e-12  1.2002576087014980e-11  1.7606623372049079e-11  2.7013425309505842e-11  4.2132180041973593e-11  6.5980522386761161e-11  1.0323230056830913e-10  1.6104911155296157e-10  2.5032757953111239e-10  3.8755563064995983e-10  5.9755821165227584e-10  9.1753661061206290e-10  1.4029802583543707e-09  2.1362753522796789e-09  3.2391775485625413e-09  4.8907921914074725e-09  7.3533629558085653e-09  1.1009071759010698e-08  1.6412282634141700e-08  2.4363328522849721e-08  3.6012182974471195e-08  5.3003358397653365e-08  7.7677357239229857e-08  1.1334925969679056e-07  1.6469191940504004e-07  2.3826019848012045e-07  3.4320424369910176e-07  4.9223463507988525e-07  7.0292109827813498e-07  9.9943026799521851e-07  1.4148377659782812e-06  1.9941867997986589e-06  2.7985109155413623e-06  3.9100938794353042e-06  5.4393064277591527e-06  7.5334393400527301e-06  1.0388046428945296e-05  1.4261420906629960e-05  1.9492955183987159e-05  2.6526278004560941e-05  3.5938223741632637e-05  4.8474865583137112e-05  6.5096034867500653e-05  8.7029949160035531e-05  1.1583977607634926e-04  1.5350416050776834e-04  2.0251392947462366e-04  2.6598734833043543e-04  3.4780641863385890e-04  4.5277676301369167e-04  5.8681361439211601e-04  7.5715629228498684e-04  9.7261328213478666e-04  1.2438396085233297e-03  1.5836475838625725e-03  2.0073511969717810e-03  2.5331433608862331e-03  3.1825039524011889e-03  3.9806350417220041e-03  4.9569179345284415e-03  6.1453846494534765e-03  7.5851942656994589e-03  9.3211022499959800e-03  1.1403908479788937e-02  1.3890867310025480e-02  1.6846040792253662e-02  2.0340574171706333e-02  2.4452871198642222e-02  2.9268645741108833e-02  3.4880825826447089e-02  4.1389286711989999e-02  4.8900391021232760e-02  5.7526316486473786e-02  6.7384155485412031e-02  7.8594775377419129e-02  9.1281434613669624e-02  1.0556815663401219e-01  1.2157787152933086e-01  1.3943034413332989e-01  1.5923991634164250e-01  1.8111310071129164e-01  2.0514607139535551e-01  2.3142210680851499e-01  2.6000904567585081e-01  2.9095682387144739e-01  3.2429516331407438e-01  3.6003148581378386e-01  3.9814912388809359e-01  4.3860589701537811e-01  4.8133311550226598e-01  5.2623506516994079e-01  5.7318901459812555e-01  6.2204577301973030e-01  6.7263081156744020e-01  7.2474594397376657e-01  7.7817154563807278e-01  8.3266927287178483e-01  8.8798522781254563e-01  9.4385349964332310e-01  1.0000000000000000e+00  </DataArray> 
</PointData> 
</Piece>
</UnstructuredGrid>
</VTKFile>