<?xml version="1.0"?>
<VTKFile type="UnstructuredGrid"  version="0.1"  >
<UnstructuredGrid>
<Piece  NumberOfPoints="101" NumberOfCells="100">
<Points>
<DataArray  type="Float64"  NumberOfComponents="3"  format="ascii">0 0 0  0.001 0 0  0.002 0 0  0.003 0 0  0.004 0 0  0.005 0 0  0.006000000000000001 0 0  0.007000000000000001 0 0  0.008 0 0  0.009000000000000001 0 0  0.01 0 0  0.011 0 0  0.012 0 0  0.013 0 0  0.014 0 0  0.015 0 0  0.016 0 0  0.017 0 0  0.018 0 0  0.019 0 0  0.02 0 0  0.021 0 0  0.022 0 0  0.023 0 0  0.024 0 0  0.025 0 0  0.026 0 0  0.027 0 0  0.028 0 0  0.029 0 0  0.03 0 0  0.031 0 0  0.032 0 0  0.033 0 0  0.034 0 0  0.035 0 0  0.036 0 0  0.03700000000000001 0 0  0.03800000000000001 0 0  0.03900000000000001 0 0  0.04 0 0  0.04100000000000001 0 0  0.042 0 0  0.043 0 0  0.044 0 0  0.045 0 0  0.04600000000000001 0 0  0.047 0 0  0.04800000000000001 0 0  0.049 0 0  0.05 0 0  0.051 0 0  0.052 0 0  0.05300000000000001 0 0  0.05400000000000001 0 0  0.055 0 0  0.05600000000000001 0 0  0.057 0 0  0.05800000000000001 0 0  0.059 0 0  0.06 0 0  0.06100000000000001 0 0  0.062 0 0  0.063 0 0  0.064 0 0  0.065 0 0  0.066 0 0  0.067 0 0  0.068 0 0  0.06900000000000001 0 0  0.07000000000000001 0 0  0.07100000000000001 0 0  0.07200000000000001 0 0  0.07300000000000001 0 0  0.07400000000000001 0 0  0.075 0 0  0.07600000000000001 0 0  0.077 0 0  0.07800000000000001 0 0  0.079 0 0  0.08 0 0  0.081 0 0  0.08200000000000002 0 0  0.083 0 0  0.08400000000000001 0 0  0.08500000000000001 0 0  0.08599999999999999 0 0  0.08700000000000001 0 0  0.08800000000000001 0 0  0.08900000000000001 0 0  0.09 0 0  0.091 0 0  0.09200000000000001 0 0  0.09300000000000001 0 0  0.094 0 0  0.095 0 0  0.09600000000000002 0 0  0.09700000000000002 0 0  0.098 0 0  0.099 0 0  0.1 0 0  </DataArray>
</Points>
<Cells>
<DataArray  type="UInt32"  Name="connectivity"  format="ascii">0 1  1 2  2 3  3 4  4 5  5 6  6 7  7 8  8 9  9 10  10 11  11 12  12 13  13 14  14 15  15 16  16 17  17 18  18 19  19 20  20 21  21 22  22 23  23 24  24 25  25 26  26 27  27 28  28 29  29 30  30 31  31 32  32 33  33 34  34 35  35 36  36 37  37 38  38 39  39 40  40 41  41 42  42 43  43 44  44 45  45 46  46 47  47 48  48 49  49 50  50 51  51 52  52 53  53 54  54 55  55 56  56 57  57 58  58 59  59 60  60 61  61 62  62 63  63 64  64 65  65 66  66 67  67 68  68 69  69 70  70 71  71 72  72 73  73 74  74 75  75 76  76 77  77 78  78 79  79 80  80 81  81 82  82 83  83 84  84 85  85 86  86 87  87 88  88 89  89 90  90 91  91 92  92 93  93 94  94 95  95 96  96 97  97 98  98 99  99 100  </DataArray>
<DataArray  type="UInt32"  Name="offsets"  format="ascii">2 4 6 8 10 12 14 16 18 20 22 24 26 28 30 32 34 36 38 40 42 44 46 48 50 52 54 56 58 60 62 64 66 68 70 72 74 76 78 80 82 84 86 88 90 92 94 96 98 100 102 104 106 108 110 112 114 116 118 120 122 124 126 128 130 132 134 136 138 140 142 144 146 148 150 152 154 156 158 160 162 164 166 168 170 172 174 176 178 180 182 184 186 188 190 192 194 196 198 200 </DataArray>
<DataArray  type="UInt8"  Name="types"  format="ascii">3 3 3 3 3 3 3 3 3 3 3 3 3 3 3 3 3 3 3 3 3 3 3 3 3 3 3 3 3 3 3 3 3 3 3 3 3 3 3 3 3 3 3 3 3 3 3 3 3 3 3 3 3 3 3 3 3 3 3 3 3 3 3 3 3 3 3 3 3 3 3 3 3 3 3 3 3 3 3 3 3 3 3 3 3 3 3 3 3 3 3 3 3 3 3 3 3 3 3 3 </DataArray>
</Cells>
<PointData  Scalars="f_14"> 
<DataArray  type="Float64"  Name="f_14"  format="ascii">4.4898910366228612e-05  4.5656306759079494e-05  4.7948794300074087e-05  5.1837653289123988e-05  5.7426305144590648e-05  6.4862256149630522e-05  7.4339843315753283e-05  8.6103806702996814e-05  1.0045371908414629e-04  1.1774931007158822e-04  1.3841672765599973e-04  1.6295578544499472e-04  1.9194824863763945e-04  2.2606721581903901e-04  2.6608765689033567e-04  3.1289816973650787e-04  3.6751401944142519e-04  4.3109152384257119e-04  5.0494384782552354e-04  5.9055826583401662e-04  6.8961494745521505e-04  8.0400731447089347e-04  9.3586400928502371e-04  1.0875725039942330e-03  1.2618043664169474e-03  1.4615421840116199e-03  1.6901081286853780e-03  1.9511941249376306e-03  2.2488935605448628e-03  2.5877344530552517e-03  2.9727139567492593e-03  3.4093340635070243e-03  3.9036383173308427e-03  4.4622493262859554e-03  5.0924068175930799e-03  5.8020059418480005e-03  6.5996354912438914e-03  7.4946156546913346e-03  8.4970348904036281e-03  9.6177854544492632e-03  1.0868597082648724e-02  1.2262068283756615e-02  1.3811694664930292e-02  1.5531893676907009e-02  1.7438025136996261e-02  1.9546406863883734e-02  2.1874324740290874e-02  2.4440036508696143e-02  2.7262768602543175e-02  3.0362705321535653e-02  3.3760969675601792e-02  3.7479595248661471e-02  4.1541488471119555e-02  4.5970380739572110e-02  5.0790769883945035e-02  5.6027850556407660e-02  6.1707433202952328e-02  6.7855851377327081e-02  7.4499857267661354e-02  8.1666505427988631e-02  8.9383024839084071e-02  9.7676679564452154e-02  1.0657461841656246e-01  1.1610371420391266e-01  1.2629039328934449e-01  1.3716045635220020e-01  1.4873889140910934e-01  1.6104968030803118e-01  1.7411560006508772e-01  1.8795802056106412e-01  2.0259670025153417e-01  2.1804958166869073e-01  2.3433258860148123e-01  2.5145942693101436e-01  2.6944139116802568e-01  2.8828717878627774e-01  3.0800271446820138e-01  3.2859098637522405e-01  3.5005189652385699e-01  3.7238212728877873e-01  3.9557502596553656e-01  4.1962050920798011e-01  4.4450498900977908e-01  4.7021132172624058e-01  4.9671878143370740e-01  5.2400305870098685e-01  5.5203628560303297e-01  5.8078708754430997e-01  6.1022066218118665e-01  6.4029888544302915e-01  6.7098044435418991e-01  7.0222099605811328e-01  7.3397335214450632e-01  7.6618768708543550e-01  7.9881176930066866e-01  8.3179121310095328e-01  8.6506974950438786e-01  8.9858951368957252e-01  9.3229134664343449e-01  9.6611510838482850e-01  1.0000000000000000e+00  </DataArray> 
</PointData> 
</Piece>
</UnstructuredGrid>
</VTKFile>