<?xml version="1.0"?>
<VTKFile type="UnstructuredGrid"  version="0.1"  >
<UnstructuredGrid>
<Piece  NumberOfPoints="101" NumberOfCells="100">
<Points>
<DataArray  type="Float64"  NumberOfComponents="3"  format="ascii">0 0 0  0.001 0 0  0.002 0 0  0.003 0 0  0.004 0 0  0.005 0 0  0.006000000000000001 0 0  0.007000000000000001 0 0  0.008 0 0  0.009000000000000001 0 0  0.01 0 0  0.011 0 0  0.012 0 0  0.013 0 0  0.014 0 0  0.015 0 0  0.016 0 0  0.017 0 0  0.018 0 0  0.019 0 0  0.02 0 0  0.021 0 0  0.022 0 0  0.023 0 0  0.024 0 0  0.025 0 0  0.026 0 0  0.027 0 0  0.028 0 0  0.029 0 0  0.03 0 0  0.031 0 0  0.032 0 0  0.033 0 0  0.034 0 0  0.035 0 0  0.036 0 0  0.03700000000000001 0 0  0.03800000000000001 0 0  0.03900000000000001 0 0  0.04 0 0  0.04100000000000001 0 0  0.042 0 0  0.043 0 0  0.044 0 0  0.045 0 0  0.04600000000000001 0 0  0.047 0 0  0.04800000000000001 0 0  0.049 0 0  0.05 0 0  0.051 0 0  0.052 0 0  0.05300000000000001 0 0  0.05400000000000001 0 0  0.055 0 0  0.05600000000000001 0 0  0.057 0 0  0.05800000000000001 0 0  0.059 0 0  0.06 0 0  0.06100000000000001 0 0  0.062 0 0  0.063 0 0  0.064 0 0  0.065 0 0  0.066 0 0  0.067 0 0  0.068 0 0  0.06900000000000001 0 0  0.07000000000000001 0 0  0.07100000000000001 0 0  0.07200000000000001 0 0  0.07300000000000001 0 0  0.07400000000000001 0 0  0.075 0 0  0.07600000000000001 0 0  0.077 0 0  0.07800000000000001 0 0  0.079 0 0  0.08 0 0  0.081 0 0  0.08200000000000002 0 0  0.083 0 0  0.08400000000000001 0 0  0.08500000000000001 0 0  0.08599999999999999 0 0  0.08700000000000001 0 0  0.08800000000000001 0 0  0.08900000000000001 0 0  0.09 0 0  0.091 0 0  0.09200000000000001 0 0  0.09300000000000001 0 0  0.094 0 0  0.095 0 0  0.09600000000000002 0 0  0.09700000000000002 0 0  0.098 0 0  0.099 0 0  0.1 0 0  </DataArray>
</Points>
<Cells>
<DataArray  type="UInt32"  Name="connectivity"  format="ascii">0 1  1 2  2 3  3 4  4 5  5 6  6 7  7 8  8 9  9 10  10 11  11 12  12 13  13 14  14 15  15 16  16 17  17 18  18 19  19 20  20 21  21 22  22 23  23 24  24 25  25 26  26 27  27 28  28 29  29 30  30 31  31 32  32 33  33 34  34 35  35 36  36 37  37 38  38 39  39 40  40 41  41 42  42 43  43 44  44 45  45 46  46 47  47 48  48 49  49 50  50 51  51 52  52 53  53 54  54 55  55 56  56 57  57 58  58 59  59 60  60 61  61 62  62 63  63 64  64 65  65 66  66 67  67 68  68 69  69 70  70 71  71 72  72 73  73 74  74 75  75 76  76 77  77 78  78 79  79 80  80 81  81 82  82 83  83 84  84 85  85 86  86 87  87 88  88 89  89 90  90 91  91 92  92 93  93 94  94 95  95 96  96 97  97 98  98 99  99 100  </DataArray>
<DataArray  type="UInt32"  Name="offsets"  format="ascii">2 4 6 8 10 12 14 16 18 20 22 24 26 28 30 32 34 36 38 40 42 44 46 48 50 52 54 56 58 60 62 64 66 68 70 72 74 76 78 80 82 84 86 88 90 92 94 96 98 100 102 104 106 108 110 112 114 116 118 120 122 124 126 128 130 132 134 136 138 140 142 144 146 148 150 152 154 156 158 160 162 164 166 168 170 172 174 176 178 180 182 184 186 188 190 192 194 196 198 200 </DataArray>
<DataArray  type="UInt8"  Name="types"  format="ascii">3 3 3 3 3 3 3 3 3 3 3 3 3 3 3 3 3 3 3 3 3 3 3 3 3 3 3 3 3 3 3 3 3 3 3 3 3 3 3 3 3 3 3 3 3 3 3 3 3 3 3 3 3 3 3 3 3 3 3 3 3 3 3 3 3 3 3 3 3 3 3 3 3 3 3 3 3 3 3 3 3 3 3 3 3 3 3 3 3 3 3 3 3 3 3 3 3 3 3 3 </DataArray>
</Cells>
<PointData  Scalars="f_14"> 
<DataArray  type="Float64"  Name="f_14"  format="ascii">3.8712244892612577e-06  3.9737375025083109e-06  4.2858124050458098e-06  4.8212140257966786e-06  5.6034115791260641e-06  6.6663833872659474e-06  8.0557695492534716e-06  9.8303988693177720e-06  1.2064224230077297e-05  1.4848708715805576e-05  1.8295713192646664e-05  2.2540944757395933e-05  2.7748034480120391e-05  3.4113322175892047e-05  4.1871435513325523e-05  5.1301760544160530e-05  6.2735910633097535e-05  7.6566310664299582e-05  9.3256023150850042e-05  1.1334995229033062e-04  1.3748757086941659e-04  1.6641732295846051e-04  2.0101286224730554e-04  2.4229129130782210e-04  2.9143357063714150e-04  3.4980726760873546e-04  4.1899181397016022e-04  5.0080643577826310e-04  5.9734091113124090e-04  7.1098929820125945e-04  8.4448675834369023e-04  1.0009495759174230e-03  1.1839184473734169e-03  1.3974050766711143e-03  1.6459420717355119e-03  1.9346360871191235e-03  2.2692241010283756e-03  2.6561326502804426e-03  3.1025397745866609e-03  3.6164393419941400e-03  4.2067073407321331e-03  4.8831696296923787e-03  5.6566705411447010e-03  6.5391416261230302e-03  7.5436697265451160e-03  8.6845634501555614e-03  9.9774170166768272e-03  1.1439170338250785e-02  1.3088164096739000e-02  1.4944188487326865e-02  1.7028524214950342e-02  1.9363974260279242e-02  2.1974884878403059e-02  2.4887154259056403e-02  2.8128227265250421e-02  3.1727074680486633e-02  3.5714155436073564e-02  4.0121360361908338e-02  4.4981936108520908e-02  5.0330388026819294e-02  5.6202360965892567e-02  6.2634497158821176e-02  6.9664270611410006e-02  7.7329797687981261e-02  8.5669623899881586e-02  9.4722487243337358e-02  1.0452705879997243e-01  1.1512166170104808e-01  1.2654396995977610e-01  1.3883068908855895e-01  1.5201722083266053e-01  1.6613731476090943e-01  1.8122270984938696e-01  1.9730276956711712e-01  2.1440411431484940e-01  2.3255025537042973e-01  2.5176123474854423e-01  2.7205327558079317e-01  2.9343844775680800e-01  3.1592435363195587e-01  3.3951383859682893e-01  3.6420473121399194e-01  3.8998961745585964e-01  4.1685565332295488e-01  4.4478441978489874e-01  4.7375182356965623e-01  5.0372804683410521e-01  5.3467754818681379e-01  5.6655911690975547e-01  5.9932598154886607e-01  6.3292597332450573e-01  6.6730174406413612e-01  7.0239103759370802e-01  7.3812701275521020e-01  7.7443861545961878e-01  8.1125099645142917e-01  8.4848597076710974e-01  8.8606251422870719e-01  9.2389729173813195e-01  9.6190521163886344e-01  1.0000000000000000e+00  </DataArray> 
</PointData> 
</Piece>
</UnstructuredGrid>
</VTKFile>