<?xml version="1.0"?>
<VTKFile type="UnstructuredGrid"  version="0.1"  >
<UnstructuredGrid>
<Piece  NumberOfPoints="101" NumberOfCells="100">
<Points>
<DataArray  type="Float64"  NumberOfComponents="3"  format="ascii">0 0 0  0.001 0 0  0.002 0 0  0.003 0 0  0.004 0 0  0.005 0 0  0.006000000000000001 0 0  0.007000000000000001 0 0  0.008 0 0  0.009000000000000001 0 0  0.01 0 0  0.011 0 0  0.012 0 0  0.013 0 0  0.014 0 0  0.015 0 0  0.016 0 0  0.017 0 0  0.018 0 0  0.019 0 0  0.02 0 0  0.021 0 0  0.022 0 0  0.023 0 0  0.024 0 0  0.025 0 0  0.026 0 0  0.027 0 0  0.028 0 0  0.029 0 0  0.03 0 0  0.031 0 0  0.032 0 0  0.033 0 0  0.034 0 0  0.035 0 0  0.036 0 0  0.03700000000000001 0 0  0.03800000000000001 0 0  0.03900000000000001 0 0  0.04 0 0  0.04100000000000001 0 0  0.042 0 0  0.043 0 0  0.044 0 0  0.045 0 0  0.04600000000000001 0 0  0.047 0 0  0.04800000000000001 0 0  0.049 0 0  0.05 0 0  0.051 0 0  0.052 0 0  0.05300000000000001 0 0  0.05400000000000001 0 0  0.055 0 0  0.05600000000000001 0 0  0.057 0 0  0.05800000000000001 0 0  0.059 0 0  0.06 0 0  0.06100000000000001 0 0  0.062 0 0  0.063 0 0  0.064 0 0  0.065 0 0  0.066 0 0  0.067 0 0  0.068 0 0  0.06900000000000001 0 0  0.07000000000000001 0 0  0.07100000000000001 0 0  0.07200000000000001 0 0  0.07300000000000001 0 0  0.07400000000000001 0 0  0.075 0 0  0.07600000000000001 0 0  0.077 0 0  0.07800000000000001 0 0  0.079 0 0  0.08 0 0  0.081 0 0  0.08200000000000002 0 0  0.083 0 0  0.08400000000000001 0 0  0.08500000000000001 0 0  0.08599999999999999 0 0  0.08700000000000001 0 0  0.08800000000000001 0 0  0.08900000000000001 0 0  0.09 0 0  0.091 0 0  0.09200000000000001 0 0  0.09300000000000001 0 0  0.094 0 0  0.095 0 0  0.09600000000000002 0 0  0.09700000000000002 0 0  0.098 0 0  0.099 0 0  0.1 0 0  </DataArray>
</Points>
<Cells>
<DataArray  type="UInt32"  Name="connectivity"  format="ascii">0 1  1 2  2 3  3 4  4 5  5 6  6 7  7 8  8 9  9 10  10 11  11 12  12 13  13 14  14 15  15 16  16 17  17 18  18 19  19 20  20 21  21 22  22 23  23 24  24 25  25 26  26 27  27 28  28 29  29 30  30 31  31 32  32 33  33 34  34 35  35 36  36 37  37 38  38 39  39 40  40 41  41 42  42 43  43 44  44 45  45 46  46 47  47 48  48 49  49 50  50 51  51 52  52 53  53 54  54 55  55 56  56 57  57 58  58 59  59 60  60 61  61 62  62 63  63 64  64 65  65 66  66 67  67 68  68 69  69 70  70 71  71 72  72 73  73 74  74 75  75 76  76 77  77 78  78 79  79 80  80 81  81 82  82 83  83 84  84 85  85 86  86 87  87 88  88 89  89 90  90 91  91 92  92 93  93 94  94 95  95 96  96 97  97 98  98 99  99 100  </DataArray>
<DataArray  type="UInt32"  Name="offsets"  format="ascii">2 4 6 8 10 12 14 16 18 20 22 24 26 28 30 32 34 36 38 40 42 44 46 48 50 52 54 56 58 60 62 64 66 68 70 72 74 76 78 80 82 84 86 88 90 92 94 96 98 100 102 104 106 108 110 112 114 116 118 120 122 124 126 128 130 132 134 136 138 140 142 144 146 148 150 152 154 156 158 160 162 164 166 168 170 172 174 176 178 180 182 184 186 188 190 192 194 196 198 200 </DataArray>
<DataArray  type="UInt8"  Name="types"  format="ascii">3 3 3 3 3 3 3 3 3 3 3 3 3 3 3 3 3 3 3 3 3 3 3 3 3 3 3 3 3 3 3 3 3 3 3 3 3 3 3 3 3 3 3 3 3 3 3 3 3 3 3 3 3 3 3 3 3 3 3 3 3 3 3 3 3 3 3 3 3 3 3 3 3 3 3 3 3 3 3 3 3 3 3 3 3 3 3 3 3 3 3 3 3 3 3 3 3 3 3 3 </DataArray>
</Cells>
<PointData  Scalars="f_14"> 
<DataArray  type="Float64"  Name="f_14"  format="ascii">9.2787069483211055e-21  1.2514403915611574e-20  2.4394680135916984e-20  5.2840631124192883e-20  1.1659094655176247e-19  2.5704393509514745e-19  5.6402637609310581e-19  1.2308093949131516e-18  2.6705197068766295e-18  5.7607664334380018e-18  1.2354357108294123e-17  2.6338632070464121e-17  5.5818418127704414e-17  1.1758478163316839e-16  2.4620221326338354e-16  5.1236317207188443e-16  1.0597093506361070e-15  2.1781924451454505e-15  4.4492211046427840e-15  9.0308278570018375e-15  1.8213964575740604e-14  3.6499945888388267e-14  7.2672178338167120e-14  1.4375062363719361e-13  2.8248425369074949e-13  5.5144096096981015e-13  1.0693044671748371e-12  2.0595798072960128e-12  3.9401074274187654e-12  7.4862963852561672e-12  1.4126443383348333e-11  2.6471764609895753e-11  4.9260024149808827e-11  9.1021816876373691e-11  1.6699869719604773e-10  3.0421106175696904e-10  5.5018530059334905e-10  9.8785422314406288e-10  1.7607779487116000e-09  3.1154606057136269e-09  5.4717232544778508e-09  9.5386865866190429e-09  1.6504190344165459e-08  2.8341305414434788e-08  4.8299704100031217e-08  8.1685943870504785e-08  1.3709068252793687e-07  2.2830008387182876e-07  3.7724353475236380e-07  6.1849406611589238e-07  1.0060695459550249e-06  1.6236047149081150e-06  2.5994048856426628e-06  4.1284857544476367e-06  6.5044897085507811e-06  1.0165390609854825e-05  1.5758200799223332e-05  2.4229517003202756e-05  3.6950716448984005e-05  5.5888951057581021e-05  8.3837763344268862e-05  1.2472409126071255e-04  1.8401150287894637e-04  2.6922248258356318e-04  3.9060515272140126e-04  5.6197151723270011e-04  8.0173459528466154e-04  1.1341700006643636e-03  1.5909228599536886e-03  2.2127726590475986e-03  3.0516559166338052e-03  4.1729289060533662e-03  5.6578296617127684e-03  7.6060703137896249e-03  1.0138458067782498e-02  1.3399407260266262e-02  1.7559168052712446e-02  2.2815562467351749e-02  2.9394989372522301e-02  3.7552441009286626e-02  4.7570269294383509e-02  5.9755454837810154e-02  7.4435169062981768e-02  9.1950482389001525e-02  1.1264815960145641e-01  1.3687059536470958e-01  1.6494407363563654e-01  1.9716567702356766e-01  2.3378931581953424e-01  2.7501147942009257e-01  3.2095742208418648e-01  3.7166856745861543e-01  4.2709194075199597e-01  4.8707240551175979e-01  5.5134838964063715e-01  6.1955163378664790e-01  6.9121129143497428e-01  7.6576246631055245e-01  8.4255900615504009e-01  9.2089010294919682e-01  1.0000000000000000e+00  </DataArray> 
</PointData> 
</Piece>
</UnstructuredGrid>
</VTKFile>