<?xml version="1.0"?>
<VTKFile type="UnstructuredGrid"  version="0.1"  >
<UnstructuredGrid>
<Piece  NumberOfPoints="101" NumberOfCells="100">
<Points>
<DataArray  type="Float64"  NumberOfComponents="3"  format="ascii">0 0 0  0.001 0 0  0.002 0 0  0.003 0 0  0.004 0 0  0.005 0 0  0.006000000000000001 0 0  0.007000000000000001 0 0  0.008 0 0  0.009000000000000001 0 0  0.01 0 0  0.011 0 0  0.012 0 0  0.013 0 0  0.014 0 0  0.015 0 0  0.016 0 0  0.017 0 0  0.018 0 0  0.019 0 0  0.02 0 0  0.021 0 0  0.022 0 0  0.023 0 0  0.024 0 0  0.025 0 0  0.026 0 0  0.027 0 0  0.028 0 0  0.029 0 0  0.03 0 0  0.031 0 0  0.032 0 0  0.033 0 0  0.034 0 0  0.035 0 0  0.036 0 0  0.03700000000000001 0 0  0.03800000000000001 0 0  0.03900000000000001 0 0  0.04 0 0  0.04100000000000001 0 0  0.042 0 0  0.043 0 0  0.044 0 0  0.045 0 0  0.04600000000000001 0 0  0.047 0 0  0.04800000000000001 0 0  0.049 0 0  0.05 0 0  0.051 0 0  0.052 0 0  0.05300000000000001 0 0  0.05400000000000001 0 0  0.055 0 0  0.05600000000000001 0 0  0.057 0 0  0.05800000000000001 0 0  0.059 0 0  0.06 0 0  0.06100000000000001 0 0  0.062 0 0  0.063 0 0  0.064 0 0  0.065 0 0  0.066 0 0  0.067 0 0  0.068 0 0  0.06900000000000001 0 0  0.07000000000000001 0 0  0.07100000000000001 0 0  0.07200000000000001 0 0  0.07300000000000001 0 0  0.07400000000000001 0 0  0.075 0 0  0.07600000000000001 0 0  0.077 0 0  0.07800000000000001 0 0  0.079 0 0  0.08 0 0  0.081 0 0  0.08200000000000002 0 0  0.083 0 0  0.08400000000000001 0 0  0.08500000000000001 0 0  0.08599999999999999 0 0  0.08700000000000001 0 0  0.08800000000000001 0 0  0.08900000000000001 0 0  0.09 0 0  0.091 0 0  0.09200000000000001 0 0  0.09300000000000001 0 0  0.094 0 0  0.095 0 0  0.09600000000000002 0 0  0.09700000000000002 0 0  0.098 0 0  0.099 0 0  0.1 0 0  </DataArray>
</Points>
<Cells>
<DataArray  type="UInt32"  Name="connectivity"  format="ascii">0 1  1 2  2 3  3 4  4 5  5 6  6 7  7 8  8 9  9 10  10 11  11 12  12 13  13 14  14 15  15 16  16 17  17 18  18 19  19 20  20 21  21 22  22 23  23 24  24 25  25 26  26 27  27 28  28 29  29 30  30 31  31 32  32 33  33 34  34 35  35 36  36 37  37 38  38 39  39 40  40 41  41 42  42 43  43 44  44 45  45 46  46 47  47 48  48 49  49 50  50 51  51 52  52 53  53 54  54 55  55 56  56 57  57 58  58 59  59 60  60 61  61 62  62 63  63 64  64 65  65 66  66 67  67 68  68 69  69 70  70 71  71 72  72 73  73 74  74 75  75 76  76 77  77 78  78 79  79 80  80 81  81 82  82 83  83 84  84 85  85 86  86 87  87 88  88 89  89 90  90 91  91 92  92 93  93 94  94 95  95 96  96 97  97 98  98 99  99 100  </DataArray>
<DataArray  type="UInt32"  Name="offsets"  format="ascii">2 4 6 8 10 12 14 16 18 20 22 24 26 28 30 32 34 36 38 40 42 44 46 48 50 52 54 56 58 60 62 64 66 68 70 72 74 76 78 80 82 84 86 88 90 92 94 96 98 100 102 104 106 108 110 112 114 116 118 120 122 124 126 128 130 132 134 136 138 140 142 144 146 148 150 152 154 156 158 160 162 164 166 168 170 172 174 176 178 180 182 184 186 188 190 192 194 196 198 200 </DataArray>
<DataArray  type="UInt8"  Name="types"  format="ascii">3 3 3 3 3 3 3 3 3 3 3 3 3 3 3 3 3 3 3 3 3 3 3 3 3 3 3 3 3 3 3 3 3 3 3 3 3 3 3 3 3 3 3 3 3 3 3 3 3 3 3 3 3 3 3 3 3 3 3 3 3 3 3 3 3 3 3 3 3 3 3 3 3 3 3 3 3 3 3 3 3 3 3 3 3 3 3 3 3 3 3 3 3 3 3 3 3 3 3 3 </DataArray>
</Cells>
<PointData  Scalars="f_14"> 
<DataArray  type="Float64"  Name="f_14"  format="ascii">1.5020001452146484e-12  1.6950994318779254e-12  2.3205105240781796e-12  3.5267010426795280e-12  5.5968960987935089e-12  9.0101734456112831e-12  1.4543197064799989e-11  2.3432143112177045e-11  3.7625316265619631e-11  6.0172984437352027e-11  9.5824552690842897e-11  1.5193788006974271e-10  2.3985633210852497e-10  3.7698316101570675e-10  5.8989001802418605e-10  9.1895082250310938e-10  1.4252132831553851e-09  2.2005349074623457e-09  3.3824550673100985e-09  5.1758995067184119e-09  7.8846858482652012e-09  1.1957008134377502e-08  1.8050744530429278e-08  2.7126711885337275e-08  4.0581088321193675e-08  6.0432404361984987e-08  8.9584101848574864e-08  1.3219110529848746e-07  1.9416867758415838e-07  2.8389470348657135e-07  4.1317327156648319e-07  5.9854898593814690e-07  8.6308900060746922e-07  1.2387846963817201e-06  1.7697687876709417e-06  2.5165982303383570e-06  3.5619205610332034e-06  5.0179233323166965e-06  7.0360652856768967e-06  9.8197059606769561e-06  1.3640389525658807e-05  1.8858700308970592e-05  2.5950792757980295e-05  3.5541907370481144e-05  4.8448415244932061e-05  6.5730184280977816e-05  8.8755324551006011e-05  1.1927964111511837e-04  1.5954338857669033e-04  2.1238816839102005e-04  2.8139701880722202e-04  3.7106089562707873e-04  4.8697480279159513e-04  6.3606677430355250e-04  8.2686269897105078e-04  1.0697895803979101e-03  1.3775191991991687e-03  1.7653532563867149e-03  2.2516498937217998e-03  2.8582899827050831e-03  3.6111797329927433e-03  4.5407839913930870e-03  5.6826820998041438e-03  7.0781353913307275e-03  8.7746523896545456e-03  1.0826534625688318e-02  1.3295382813934952e-02  1.6250540083005364e-02  1.9769446200407697e-02  2.3937874462508738e-02  2.8850021342923752e-02  3.4608418318953255e-02  4.1323635733332933e-02  4.9113750286558733e-02  5.8103550949829337e-02  6.8423462849000985e-02  8.0208175042319932e-02  9.3594966069878632e-02  1.0872173057517003e-01  1.2572472097976800e-01  1.4473602982650124e-01  1.6588085059767657e-01  1.8927456708384613e-01  2.1501973317984505e-01  2.4320301572930877e-01  2.7389218212170330e-01  3.0713322117883946e-01  3.4294768991395386e-01  3.8133037955571419e-01  4.2224739147239199e-01  4.6563470712804295e-01  5.1139732594578635e-01  5.5940903112252272e-01  6.0951282640469950e-01  6.6152206714877559e-01  7.1522228736946369e-01  7.7037370177375741e-01  8.2671433893299606e-01  8.8396373974882103e-01  9.4182713520597605e-01  1.0000000000000000e+00  </DataArray> 
</PointData> 
</Piece>
</UnstructuredGrid>
</VTKFile>