<?xml version="1.0"?>
<VTKFile type="UnstructuredGrid"  version="0.1"  >
<UnstructuredGrid>
<Piece  NumberOfPoints="101" NumberOfCells="100">
<Points>
<DataArray  type="Float64"  NumberOfComponents="3"  format="ascii">0 0 0  0.001 0 0  0.002 0 0  0.003 0 0  0.004 0 0  0.005 0 0  0.006000000000000001 0 0  0.007000000000000001 0 0  0.008 0 0  0.009000000000000001 0 0  0.01 0 0  0.011 0 0  0.012 0 0  0.013 0 0  0.014 0 0  0.015 0 0  0.016 0 0  0.017 0 0  0.018 0 0  0.019 0 0  0.02 0 0  0.021 0 0  0.022 0 0  0.023 0 0  0.024 0 0  0.025 0 0  0.026 0 0  0.027 0 0  0.028 0 0  0.029 0 0  0.03 0 0  0.031 0 0  0.032 0 0  0.033 0 0  0.034 0 0  0.035 0 0  0.036 0 0  0.03700000000000001 0 0  0.03800000000000001 0 0  0.03900000000000001 0 0  0.04 0 0  0.04100000000000001 0 0  0.042 0 0  0.043 0 0  0.044 0 0  0.045 0 0  0.04600000000000001 0 0  0.047 0 0  0.04800000000000001 0 0  0.049 0 0  0.05 0 0  0.051 0 0  0.052 0 0  0.05300000000000001 0 0  0.05400000000000001 0 0  0.055 0 0  0.05600000000000001 0 0  0.057 0 0  0.05800000000000001 0 0  0.059 0 0  0.06 0 0  0.06100000000000001 0 0  0.062 0 0  0.063 0 0  0.064 0 0  0.065 0 0  0.066 0 0  0.067 0 0  0.068 0 0  0.06900000000000001 0 0  0.07000000000000001 0 0  0.07100000000000001 0 0  0.07200000000000001 0 0  0.07300000000000001 0 0  0.07400000000000001 0 0  0.075 0 0  0.07600000000000001 0 0  0.077 0 0  0.07800000000000001 0 0  0.079 0 0  0.08 0 0  0.081 0 0  0.08200000000000002 0 0  0.083 0 0  0.08400000000000001 0 0  0.08500000000000001 0 0  0.08599999999999999 0 0  0.08700000000000001 0 0  0.08800000000000001 0 0  0.08900000000000001 0 0  0.09 0 0  0.091 0 0  0.09200000000000001 0 0  0.09300000000000001 0 0  0.094 0 0  0.095 0 0  0.09600000000000002 0 0  0.09700000000000002 0 0  0.098 0 0  0.099 0 0  0.1 0 0  </DataArray>
</Points>
<Cells>
<DataArray  type="UInt32"  Name="connectivity"  format="ascii">0 1  1 2  2 3  3 4  4 5  5 6  6 7  7 8  8 9  9 10  10 11  11 12  12 13  13 14  14 15  15 16  16 17  17 18  18 19  19 20  20 21  21 22  22 23  23 24  24 25  25 26  26 27  27 28  28 29  29 30  30 31  31 32  32 33  33 34  34 35  35 36  36 37  37 38  38 39  39 40  40 41  41 42  42 43  43 44  44 45  45 46  46 47  47 48  48 49  49 50  50 51  51 52  52 53  53 54  54 55  55 56  56 57  57 58  58 59  59 60  60 61  61 62  62 63  63 64  64 65  65 66  66 67  67 68  68 69  69 70  70 71  71 72  72 73  73 74  74 75  75 76  76 77  77 78  78 79  79 80  80 81  81 82  82 83  83 84  84 85  85 86  86 87  87 88  88 89  89 90  90 91  91 92  92 93  93 94  94 95  95 96  96 97  97 98  98 99  99 100  </DataArray>
<DataArray  type="UInt32"  Name="offsets"  format="ascii">2 4 6 8 10 12 14 16 18 20 22 24 26 28 30 32 34 36 38 40 42 44 46 48 50 52 54 56 58 60 62 64 66 68 70 72 74 76 78 80 82 84 86 88 90 92 94 96 98 100 102 104 106 108 110 112 114 116 118 120 122 124 126 128 130 132 134 136 138 140 142 144 146 148 150 152 154 156 158 160 162 164 166 168 170 172 174 176 178 180 182 184 186 188 190 192 194 196 198 200 </DataArray>
<DataArray  type="UInt8"  Name="types"  format="ascii">3 3 3 3 3 3 3 3 3 3 3 3 3 3 3 3 3 3 3 3 3 3 3 3 3 3 3 3 3 3 3 3 3 3 3 3 3 3 3 3 3 3 3 3 3 3 3 3 3 3 3 3 3 3 3 3 3 3 3 3 3 3 3 3 3 3 3 3 3 3 3 3 3 3 3 3 3 3 3 3 3 3 3 3 3 3 3 3 3 3 3 3 3 3 3 3 3 3 3 3 </DataArray>
</Cells>
<PointData  Scalars="f_14"> 
<DataArray  type="Float64"  Name="f_14"  format="ascii">2.3384062188343684e-12  2.6294868451705570e-12  3.5699355860223322e-12  5.3756183253999926e-12  8.4565303514286325e-12  1.3502161593870437e-11  2.1622829311453589e-11  3.4573136476215334e-11  5.5098082977857862e-11  8.7463210454953634e-11  1.3826058732956505e-10  2.1762679324706929e-10  3.4107347934650388e-10  5.3222417848861338e-10  8.2688484455363650e-10  1.2790667926613066e-09  1.9698522686767974e-09  3.0203762174634767e-09  4.6107355962900073e-09  7.0073872467637573e-09  1.0602633682780593e-08  1.5971224968643496e-08  2.3951057972153890e-08  3.5757606084861526e-08  5.3145288256676655e-08  7.8633774099412421e-08  1.1582358702063490e-07  1.6983376773079587e-07  2.4790536393519295e-07  3.6022881482331658e-07  5.2107174408662423e-07  7.5030726955875052e-07  1.0754728662017532e-06  1.5345274538084976e-06  2.1795212798688066e-06  3.0814510639396218e-06  4.3366436388992943e-06  6.0750969341889686e-06  8.4713095738776502e-06  1.1758251478959886e-05  1.6245269275788930e-05  2.2340883160755125e-05  3.0581616574017433e-05  4.1668205984703478e-05  5.6510763297590321e-05  7.6284704088803635e-05  1.0249950509023602e-04  1.3708260544816265e-04  1.8248100659311575e-04  2.4178333995353521e-04  3.1886534140122228e-04  4.1856177359050222e-04  5.4686784588240181e-04  7.1117306661659457e-04  9.2053019175162469e-04  1.1859614734405445e-03  1.5208037280425601e-03  1.9410928034809310e-03  2.4659868032739069e-03  3.1182258988211881e-03  3.9246247229470206e-03  4.9165911904735602e-03  6.1306631571737902e-03  7.6090516486913137e-03  9.4001765308345080e-03  1.1559177541863018e-02  1.4148380681355134e-02  1.7237697189123748e-02  2.0904929913816744e-02  2.5235959944398725e-02  3.0324785149895617e-02  3.6273381937276451e-02  4.3191362279713520e-02  5.1195400053018002e-02  6.0408404078702432e-02  7.0958420092901500e-02  8.2977250166503230e-02  9.6598785847283916e-02  1.1195706035350764e-01  1.2918403530878506e-01  1.4840714847227476e-01  1.6974666030680827e-01  1.9331284858874639e-01  2.1920311108954926e-01  2.4749904610759055e-01  2.7826358874795337e-01  3.1153828680671819e-01  3.4734080343530327e-01  3.8566273404416224e-01  4.2646782187122911e-01  4.6969065014528855e-01  5.1523587883280264e-01  5.6297808075304279e-01  6.1276221573727307e-01  6.6440476301374762e-01  7.1769551178794389e-01  7.7239998884122318e-01  8.2826248075704834e-01  8.8500958800675189e-01  9.4235422948312819e-01  1.0000000000000000e+00  </DataArray> 
</PointData> 
</Piece>
</UnstructuredGrid>
</VTKFile>