<?xml version="1.0"?>
<VTKFile type="UnstructuredGrid"  version="0.1"  >
<UnstructuredGrid>
<Piece  NumberOfPoints="101" NumberOfCells="100">
<Points>
<DataArray  type="Float64"  NumberOfComponents="3"  format="ascii">0 0 0  0.001 0 0  0.002 0 0  0.003 0 0  0.004 0 0  0.005 0 0  0.006000000000000001 0 0  0.007000000000000001 0 0  0.008 0 0  0.009000000000000001 0 0  0.01 0 0  0.011 0 0  0.012 0 0  0.013 0 0  0.014 0 0  0.015 0 0  0.016 0 0  0.017 0 0  0.018 0 0  0.019 0 0  0.02 0 0  0.021 0 0  0.022 0 0  0.023 0 0  0.024 0 0  0.025 0 0  0.026 0 0  0.027 0 0  0.028 0 0  0.029 0 0  0.03 0 0  0.031 0 0  0.032 0 0  0.033 0 0  0.034 0 0  0.035 0 0  0.036 0 0  0.03700000000000001 0 0  0.03800000000000001 0 0  0.03900000000000001 0 0  0.04 0 0  0.04100000000000001 0 0  0.042 0 0  0.043 0 0  0.044 0 0  0.045 0 0  0.04600000000000001 0 0  0.047 0 0  0.04800000000000001 0 0  0.049 0 0  0.05 0 0  0.051 0 0  0.052 0 0  0.05300000000000001 0 0  0.05400000000000001 0 0  0.055 0 0  0.05600000000000001 0 0  0.057 0 0  0.05800000000000001 0 0  0.059 0 0  0.06 0 0  0.06100000000000001 0 0  0.062 0 0  0.063 0 0  0.064 0 0  0.065 0 0  0.066 0 0  0.067 0 0  0.068 0 0  0.06900000000000001 0 0  0.07000000000000001 0 0  0.07100000000000001 0 0  0.07200000000000001 0 0  0.07300000000000001 0 0  0.07400000000000001 0 0  0.075 0 0  0.07600000000000001 0 0  0.077 0 0  0.07800000000000001 0 0  0.079 0 0  0.08 0 0  0.081 0 0  0.08200000000000002 0 0  0.083 0 0  0.08400000000000001 0 0  0.08500000000000001 0 0  0.08599999999999999 0 0  0.08700000000000001 0 0  0.08800000000000001 0 0  0.08900000000000001 0 0  0.09 0 0  0.091 0 0  0.09200000000000001 0 0  0.09300000000000001 0 0  0.094 0 0  0.095 0 0  0.09600000000000002 0 0  0.09700000000000002 0 0  0.098 0 0  0.099 0 0  0.1 0 0  </DataArray>
</Points>
<Cells>
<DataArray  type="UInt32"  Name="connectivity"  format="ascii">0 1  1 2  2 3  3 4  4 5  5 6  6 7  7 8  8 9  9 10  10 11  11 12  12 13  13 14  14 15  15 16  16 17  17 18  18 19  19 20  20 21  21 22  22 23  23 24  24 25  25 26  26 27  27 28  28 29  29 30  30 31  31 32  32 33  33 34  34 35  35 36  36 37  37 38  38 39  39 40  40 41  41 42  42 43  43 44  44 45  45 46  46 47  47 48  48 49  49 50  50 51  51 52  52 53  53 54  54 55  55 56  56 57  57 58  58 59  59 60  60 61  61 62  62 63  63 64  64 65  65 66  66 67  67 68  68 69  69 70  70 71  71 72  72 73  73 74  74 75  75 76  76 77  77 78  78 79  79 80  80 81  81 82  82 83  83 84  84 85  85 86  86 87  87 88  88 89  89 90  90 91  91 92  92 93  93 94  94 95  95 96  96 97  97 98  98 99  99 100  </DataArray>
<DataArray  type="UInt32"  Name="offsets"  format="ascii">2 4 6 8 10 12 14 16 18 20 22 24 26 28 30 32 34 36 38 40 42 44 46 48 50 52 54 56 58 60 62 64 66 68 70 72 74 76 78 80 82 84 86 88 90 92 94 96 98 100 102 104 106 108 110 112 114 116 118 120 122 124 126 128 130 132 134 136 138 140 142 144 146 148 150 152 154 156 158 160 162 164 166 168 170 172 174 176 178 180 182 184 186 188 190 192 194 196 198 200 </DataArray>
<DataArray  type="UInt8"  Name="types"  format="ascii">3 3 3 3 3 3 3 3 3 3 3 3 3 3 3 3 3 3 3 3 3 3 3 3 3 3 3 3 3 3 3 3 3 3 3 3 3 3 3 3 3 3 3 3 3 3 3 3 3 3 3 3 3 3 3 3 3 3 3 3 3 3 3 3 3 3 3 3 3 3 3 3 3 3 3 3 3 3 3 3 3 3 3 3 3 3 3 3 3 3 3 3 3 3 3 3 3 3 3 3 </DataArray>
</Cells>
<PointData  Scalars="f_14"> 
<DataArray  type="Float64"  Name="f_14"  format="ascii">1.2651736887909855e-03  1.2744253249587210e-03  1.3022738950966475e-03  1.3490008212811483e-03  1.4150765953545364e-03  1.5011629538075675e-03  1.6081159071753984e-03  1.7369896083698718e-03  1.8890410397271662e-03  2.0657354937669496e-03  2.2687528177127675e-03  2.4999943866927162e-03  2.7615907652083676e-03  3.0559100109171333e-03  3.3855665690131795e-03  3.7534306995151241e-03  4.1626383735820574e-03  4.6166015685970554e-03  5.1190188852005781e-03  5.6738864027539504e-03  6.2855086829023384e-03  6.9585098240318097e-03  7.6978444625288439e-03  8.5088086099135932e-03  9.3970502081979785e-03  1.0368579279292090e-02  1.1429777538029469e-02  1.2587407332492011e-02  1.3848619769883486e-02  1.5220961881325060e-02  1.6712382674730852e-02  1.8331237921471795e-02  2.0086293519959407e-02  2.1986727277686510e-02  2.4042128952754937e-02  2.6262498396606937e-02  2.8658241641656694e-02  3.1240164780886516e-02  3.4019465491315772e-02  3.7007722059647620e-02  4.0216879776417233e-02  4.3659234574658472e-02  4.7347413800515645e-02  5.1294354016378392e-02  5.5513275752013473e-02  6.0017655135802664e-02  6.4821192356532956e-02  6.9937776926172160e-02  7.5381449735631267e-02  8.1166361918553198e-02  8.7306730562574708e-02  9.3816791333119529e-02  1.0071074810144989e-01  1.0800271969622653e-01  1.1570668392600496e-01  1.2383641904869186e-01  1.3240544289275644e-01  1.4142694986366638e-01  1.5091374609732780e-01  1.6087818304994528e-01  1.7133208984040502e-01  1.8228670468668715e-01  1.9375260580165224e-01  2.0573964213549331e-01  2.1825686437190236e-01  2.3131245660228630e-01  2.4491366911687867e-01  2.5906675276308844e-01  2.7377689532964550e-01  2.8904816041983578e-01  3.0488342927816575e-01  3.2128434603200973e-01  3.3825126680303447e-01  3.5578321313239003e-01  3.7387783014874776e-01  3.9253134988925492e-01  4.1173856016040200e-01  4.3149277929873353e-01  4.5178583716044207e-01  4.7260806263427385e-01  4.9394827793415963e-01  5.1579379988671858e-01  5.3813044838467494e-01  5.6094256213053040e-01  5.8421302174600809e-01  6.0792328027215503e-01  6.3205340103308916e-01  6.5658210278358387e-01  6.8148681200753591e-01  7.0674372218134429e-01  7.3232785976380965e-01  7.5821315662290634e-01  7.8437252856013462e-01  8.1077795954565424e-01  8.3740059123248101e-01  8.6421081727617111e-01  8.9117838194803600e-01  9.1827248249543170e-01  9.4546187467238685e-01  9.7271498083811125e-01  1.0000000000000000e+00  </DataArray> 
</PointData> 
</Piece>
</UnstructuredGrid>
</VTKFile>