<?xml version="1.0"?>
<VTKFile type="UnstructuredGrid"  version="0.1"  >
<UnstructuredGrid>
<Piece  NumberOfPoints="101" NumberOfCells="100">
<Points>
<DataArray  type="Float64"  NumberOfComponents="3"  format="ascii">0 0 0  0.001 0 0  0.002 0 0  0.003 0 0  0.004 0 0  0.005 0 0  0.006000000000000001 0 0  0.007000000000000001 0 0  0.008 0 0  0.009000000000000001 0 0  0.01 0 0  0.011 0 0  0.012 0 0  0.013 0 0  0.014 0 0  0.015 0 0  0.016 0 0  0.017 0 0  0.018 0 0  0.019 0 0  0.02 0 0  0.021 0 0  0.022 0 0  0.023 0 0  0.024 0 0  0.025 0 0  0.026 0 0  0.027 0 0  0.028 0 0  0.029 0 0  0.03 0 0  0.031 0 0  0.032 0 0  0.033 0 0  0.034 0 0  0.035 0 0  0.036 0 0  0.03700000000000001 0 0  0.03800000000000001 0 0  0.03900000000000001 0 0  0.04 0 0  0.04100000000000001 0 0  0.042 0 0  0.043 0 0  0.044 0 0  0.045 0 0  0.04600000000000001 0 0  0.047 0 0  0.04800000000000001 0 0  0.049 0 0  0.05 0 0  0.051 0 0  0.052 0 0  0.05300000000000001 0 0  0.05400000000000001 0 0  0.055 0 0  0.05600000000000001 0 0  0.057 0 0  0.05800000000000001 0 0  0.059 0 0  0.06 0 0  0.06100000000000001 0 0  0.062 0 0  0.063 0 0  0.064 0 0  0.065 0 0  0.066 0 0  0.067 0 0  0.068 0 0  0.06900000000000001 0 0  0.07000000000000001 0 0  0.07100000000000001 0 0  0.07200000000000001 0 0  0.07300000000000001 0 0  0.07400000000000001 0 0  0.075 0 0  0.07600000000000001 0 0  0.077 0 0  0.07800000000000001 0 0  0.079 0 0  0.08 0 0  0.081 0 0  0.08200000000000002 0 0  0.083 0 0  0.08400000000000001 0 0  0.08500000000000001 0 0  0.08599999999999999 0 0  0.08700000000000001 0 0  0.08800000000000001 0 0  0.08900000000000001 0 0  0.09 0 0  0.091 0 0  0.09200000000000001 0 0  0.09300000000000001 0 0  0.094 0 0  0.095 0 0  0.09600000000000002 0 0  0.09700000000000002 0 0  0.098 0 0  0.099 0 0  0.1 0 0  </DataArray>
</Points>
<Cells>
<DataArray  type="UInt32"  Name="connectivity"  format="ascii">0 1  1 2  2 3  3 4  4 5  5 6  6 7  7 8  8 9  9 10  10 11  11 12  12 13  13 14  14 15  15 16  16 17  17 18  18 19  19 20  20 21  21 22  22 23  23 24  24 25  25 26  26 27  27 28  28 29  29 30  30 31  31 32  32 33  33 34  34 35  35 36  36 37  37 38  38 39  39 40  40 41  41 42  42 43  43 44  44 45  45 46  46 47  47 48  48 49  49 50  50 51  51 52  52 53  53 54  54 55  55 56  56 57  57 58  58 59  59 60  60 61  61 62  62 63  63 64  64 65  65 66  66 67  67 68  68 69  69 70  70 71  71 72  72 73  73 74  74 75  75 76  76 77  77 78  78 79  79 80  80 81  81 82  82 83  83 84  84 85  85 86  86 87  87 88  88 89  89 90  90 91  91 92  92 93  93 94  94 95  95 96  96 97  97 98  98 99  99 100  </DataArray>
<DataArray  type="UInt32"  Name="offsets"  format="ascii">2 4 6 8 10 12 14 16 18 20 22 24 26 28 30 32 34 36 38 40 42 44 46 48 50 52 54 56 58 60 62 64 66 68 70 72 74 76 78 80 82 84 86 88 90 92 94 96 98 100 102 104 106 108 110 112 114 116 118 120 122 124 126 128 130 132 134 136 138 140 142 144 146 148 150 152 154 156 158 160 162 164 166 168 170 172 174 176 178 180 182 184 186 188 190 192 194 196 198 200 </DataArray>
<DataArray  type="UInt8"  Name="types"  format="ascii">3 3 3 3 3 3 3 3 3 3 3 3 3 3 3 3 3 3 3 3 3 3 3 3 3 3 3 3 3 3 3 3 3 3 3 3 3 3 3 3 3 3 3 3 3 3 3 3 3 3 3 3 3 3 3 3 3 3 3 3 3 3 3 3 3 3 3 3 3 3 3 3 3 3 3 3 3 3 3 3 3 3 3 3 3 3 3 3 3 3 3 3 3 3 3 3 3 3 3 3 </DataArray>
</Cells>
<PointData  Scalars="f_14"> 
<DataArray  type="Float64"  Name="f_14"  format="ascii">1.5137068279742407e-06  1.5602413366376010e-06  1.7022691199820338e-06  1.9471643962106077e-06  2.3075587378608970e-06  2.8018636238936071e-06  3.4550236553371503e-06  4.2995224600296155e-06  5.3766701453294053e-06  6.7382083844063997e-06  8.4482769155050013e-06  1.0585793458841875e-05  1.3247307865393371e-05  1.6550400744144458e-05  2.0637706890217808e-05  2.5681654555337388e-05  3.1890022938899886e-05  3.9512432177811771e-05  4.8847892487651499e-05  6.0253551829536751e-05  7.4154794375886775e-05  9.1056854905586769e-05  1.1155812680387123e-04  1.3636535324699890e-04  1.6631090202907765e-04  2.0237233388861582e-04  2.4569448160265551e-04  2.9761426196109152e-04  3.5968844437713886e-04  4.3372459764047543e-04  5.2181542943775631e-04  6.2637672097339404e-04  7.5018904051954232e-04  8.9644339419822075e-04  1.0687909389529441e-03  1.2713968407410709e-03  1.5089983097738584e-03  1.7869667835457156e-03  2.1113741569518327e-03  2.4890628766820544e-03  2.9277196241872727e-03  3.4359522079702356e-03  4.0233691721595355e-03  4.7006615050007106e-03  5.4796856991032655e-03  6.3735472764539823e-03  7.3966837471761719e-03  8.5649458240224397e-03  9.8956755672918537e-03  1.1407779990319873e-02  1.3121798517352594e-02  1.5059962557281655e-02  1.7246245342489464e-02  1.9706400086271912e-02  2.2467984439466120e-02  2.5560369181566903e-02  2.9014729068270590e-02  3.2864013780361981e-02  3.7142896982174912e-02  4.1887701605057767e-02  4.7136299625324195e-02  5.2927984809250345e-02  5.9303317151107274e-02  6.6303938034250276e-02  7.3972355499040188e-02  8.2351699402715250e-02  9.1485446701783241e-02  1.0141711757222968e-01  1.1218994360059879e-01  1.2384650982221487e-01  1.3642837294258336e-01  1.4997565864428863e-01  1.6452664144339454e-01  1.8011731110454388e-01  1.9678093014013603e-01  2.1454758739331542e-01  2.3344375312419588e-01  2.5349184137124031e-01  2.7470978563318732e-01  2.9711063410043881e-01  3.2070217074898544e-01  3.4548656858681398e-01  3.7146008120656970e-01  3.9861277854535887e-01  4.2692833238190120e-01  4.5638385661421899e-01  4.8694980676196697e-01  5.1858994243326062e-01  5.5126135569616042e-01  5.8491456741207659e-01  6.1949369263679788e-01  6.5493667519142384e-01  6.9117559046854926e-01  7.2813701448845236e-01  7.6574245617640913e-01  8.0390884881666402e-01  8.4254909567196401e-01  8.8157266386020350e-01  9.2088621977069351e-01  9.6039429859935510e-01  1.0000000000000000e+00  </DataArray> 
</PointData> 
</Piece>
</UnstructuredGrid>
</VTKFile>