<?xml version="1.0"?>
<VTKFile type="UnstructuredGrid"  version="0.1"  >
<UnstructuredGrid>
<Piece  NumberOfPoints="101" NumberOfCells="100">
<Points>
<DataArray  type="Float64"  NumberOfComponents="3"  format="ascii">0 0 0  0.001 0 0  0.002 0 0  0.003 0 0  0.004 0 0  0.005 0 0  0.006000000000000001 0 0  0.007000000000000001 0 0  0.008 0 0  0.009000000000000001 0 0  0.01 0 0  0.011 0 0  0.012 0 0  0.013 0 0  0.014 0 0  0.015 0 0  0.016 0 0  0.017 0 0  0.018 0 0  0.019 0 0  0.02 0 0  0.021 0 0  0.022 0 0  0.023 0 0  0.024 0 0  0.025 0 0  0.026 0 0  0.027 0 0  0.028 0 0  0.029 0 0  0.03 0 0  0.031 0 0  0.032 0 0  0.033 0 0  0.034 0 0  0.035 0 0  0.036 0 0  0.03700000000000001 0 0  0.03800000000000001 0 0  0.03900000000000001 0 0  0.04 0 0  0.04100000000000001 0 0  0.042 0 0  0.043 0 0  0.044 0 0  0.045 0 0  0.04600000000000001 0 0  0.047 0 0  0.04800000000000001 0 0  0.049 0 0  0.05 0 0  0.051 0 0  0.052 0 0  0.05300000000000001 0 0  0.05400000000000001 0 0  0.055 0 0  0.05600000000000001 0 0  0.057 0 0  0.05800000000000001 0 0  0.059 0 0  0.06 0 0  0.06100000000000001 0 0  0.062 0 0  0.063 0 0  0.064 0 0  0.065 0 0  0.066 0 0  0.067 0 0  0.068 0 0  0.06900000000000001 0 0  0.07000000000000001 0 0  0.07100000000000001 0 0  0.07200000000000001 0 0  0.07300000000000001 0 0  0.07400000000000001 0 0  0.075 0 0  0.07600000000000001 0 0  0.077 0 0  0.07800000000000001 0 0  0.079 0 0  0.08 0 0  0.081 0 0  0.08200000000000002 0 0  0.083 0 0  0.08400000000000001 0 0  0.08500000000000001 0 0  0.08599999999999999 0 0  0.08700000000000001 0 0  0.08800000000000001 0 0  0.08900000000000001 0 0  0.09 0 0  0.091 0 0  0.09200000000000001 0 0  0.09300000000000001 0 0  0.094 0 0  0.095 0 0  0.09600000000000002 0 0  0.09700000000000002 0 0  0.098 0 0  0.099 0 0  0.1 0 0  </DataArray>
</Points>
<Cells>
<DataArray  type="UInt32"  Name="connectivity"  format="ascii">0 1  1 2  2 3  3 4  4 5  5 6  6 7  7 8  8 9  9 10  10 11  11 12  12 13  13 14  14 15  15 16  16 17  17 18  18 19  19 20  20 21  21 22  22 23  23 24  24 25  25 26  26 27  27 28  28 29  29 30  30 31  31 32  32 33  33 34  34 35  35 36  36 37  37 38  38 39  39 40  40 41  41 42  42 43  43 44  44 45  45 46  46 47  47 48  48 49  49 50  50 51  51 52  52 53  53 54  54 55  55 56  56 57  57 58  58 59  59 60  60 61  61 62  62 63  63 64  64 65  65 66  66 67  67 68  68 69  69 70  70 71  71 72  72 73  73 74  74 75  75 76  76 77  77 78  78 79  79 80  80 81  81 82  82 83  83 84  84 85  85 86  86 87  87 88  88 89  89 90  90 91  91 92  92 93  93 94  94 95  95 96  96 97  97 98  98 99  99 100  </DataArray>
<DataArray  type="UInt32"  Name="offsets"  format="ascii">2 4 6 8 10 12 14 16 18 20 22 24 26 28 30 32 34 36 38 40 42 44 46 48 50 52 54 56 58 60 62 64 66 68 70 72 74 76 78 80 82 84 86 88 90 92 94 96 98 100 102 104 106 108 110 112 114 116 118 120 122 124 126 128 130 132 134 136 138 140 142 144 146 148 150 152 154 156 158 160 162 164 166 168 170 172 174 176 178 180 182 184 186 188 190 192 194 196 198 200 </DataArray>
<DataArray  type="UInt8"  Name="types"  format="ascii">3 3 3 3 3 3 3 3 3 3 3 3 3 3 3 3 3 3 3 3 3 3 3 3 3 3 3 3 3 3 3 3 3 3 3 3 3 3 3 3 3 3 3 3 3 3 3 3 3 3 3 3 3 3 3 3 3 3 3 3 3 3 3 3 3 3 3 3 3 3 3 3 3 3 3 3 3 3 3 3 3 3 3 3 3 3 3 3 3 3 3 3 3 3 3 3 3 3 3 3 </DataArray>
</Cells>
<PointData  Scalars="f_14"> 
<DataArray  type="Float64"  Name="f_14"  format="ascii">1.4630851752846302e-18  1.8759944812118083e-18  3.3376957691222508e-18  6.6318722267991418e-18  1.3503253555294418e-17  2.7537500179318111e-17  5.5941189273758835e-17  1.1305847201381323e-16  2.2724705079809825e-16  4.5422584784401637e-16  9.0281823544387218e-16  1.7842885071404896e-15  3.5062962780087586e-15  6.8506796607058179e-15  1.3307700307217223e-14  2.5700374648702577e-14  4.9343025483607649e-14  9.4176980496509366e-14  1.7868134384817100e-13  3.3698605172149125e-13  6.3172160575893278e-13  1.1770732029147070e-12  2.1798571152868138e-12  4.0121975359923696e-12  7.3392091677013805e-12  1.3341722605070590e-11  2.4102011647840027e-11  4.3266976307927872e-11  7.7180016083703500e-11  1.3679855978267239e-10  2.4091835621347819e-10  4.2155420332589426e-10  7.3285100767139565e-10  1.2657279425771410e-09  2.1717571693294675e-09  3.7017945831853535e-09  6.2679800413623192e-09  1.0542445584795218e-08  1.7613189451423970e-08  2.9228201860392768e-08  4.8174632336689662e-08  7.8862747812349481e-08  1.2821763617210486e-07  2.0702910101839609e-07  3.3197733976884674e-07  5.2864581228366240e-07  8.3596217909101289e-07  1.3126845956200182e-06  2.0467878136556554e-06  3.1689179463776979e-06  4.8714954270459468e-06  7.4355737318901081e-06  1.1268229024320756e-05  1.6954084592401210e-05  2.5325582228987799e-05  3.7557812237126631e-05  5.5295104723648032e-05  8.0818149999104932e-05  1.1726211343915816e-04  1.6889796592364962e-04  2.4149095037145706e-04  3.4275158552099505e-04  4.8289565420326258e-04  6.7532996368292026e-04  9.3747997659011332e-04  1.2917733267453716e-03  1.7667893659628832e-03  2.3985788533022220e-03  3.2321493617054561e-03  4.3231007007909304e-03  5.7393805581846822e-03  7.5631137854596971e-03  9.8924397220037878e-03  1.2843271420528775e-02  1.6550869741339149e-02  2.1171105524438627e-02  2.6881266277177802e-02  3.3880252141746295e-02  4.2388001576032022e-02  5.2643992391587686e-02  6.4904680473965665e-02  7.9439768075924552e-02  9.6527236661886298e-02  1.1644713552365084e-01  1.3947418522530824e-01  1.6586933152756203e-01  1.9587046667965141e-01  2.2968261562639722e-01  2.6746795871117435e-01  3.0933612341778083e-01  3.5533521927559486e-01  4.0544410667739111e-01  4.5956637779215426e-01  5.1752648365058862e-01  5.7906836580790166e-01  6.4385684627125450e-01  7.1148190070794870e-01  7.8146579473817135e-01  8.5327291060935595e-01  9.2632194212409924e-01  1.0000000000000000e+00  </DataArray> 
</PointData> 
</Piece>
</UnstructuredGrid>
</VTKFile>