<?xml version="1.0"?>
<VTKFile type="UnstructuredGrid"  version="0.1"  >
<UnstructuredGrid>
<Piece  NumberOfPoints="101" NumberOfCells="100">
<Points>
<DataArray  type="Float64"  NumberOfComponents="3"  format="ascii">0 0 0  0.001 0 0  0.002 0 0  0.003 0 0  0.004 0 0  0.005 0 0  0.006000000000000001 0 0  0.007000000000000001 0 0  0.008 0 0  0.009000000000000001 0 0  0.01 0 0  0.011 0 0  0.012 0 0  0.013 0 0  0.014 0 0  0.015 0 0  0.016 0 0  0.017 0 0  0.018 0 0  0.019 0 0  0.02 0 0  0.021 0 0  0.022 0 0  0.023 0 0  0.024 0 0  0.025 0 0  0.026 0 0  0.027 0 0  0.028 0 0  0.029 0 0  0.03 0 0  0.031 0 0  0.032 0 0  0.033 0 0  0.034 0 0  0.035 0 0  0.036 0 0  0.03700000000000001 0 0  0.03800000000000001 0 0  0.03900000000000001 0 0  0.04 0 0  0.04100000000000001 0 0  0.042 0 0  0.043 0 0  0.044 0 0  0.045 0 0  0.04600000000000001 0 0  0.047 0 0  0.04800000000000001 0 0  0.049 0 0  0.05 0 0  0.051 0 0  0.052 0 0  0.05300000000000001 0 0  0.05400000000000001 0 0  0.055 0 0  0.05600000000000001 0 0  0.057 0 0  0.05800000000000001 0 0  0.059 0 0  0.06 0 0  0.06100000000000001 0 0  0.062 0 0  0.063 0 0  0.064 0 0  0.065 0 0  0.066 0 0  0.067 0 0  0.068 0 0  0.06900000000000001 0 0  0.07000000000000001 0 0  0.07100000000000001 0 0  0.07200000000000001 0 0  0.07300000000000001 0 0  0.07400000000000001 0 0  0.075 0 0  0.07600000000000001 0 0  0.077 0 0  0.07800000000000001 0 0  0.079 0 0  0.08 0 0  0.081 0 0  0.08200000000000002 0 0  0.083 0 0  0.08400000000000001 0 0  0.08500000000000001 0 0  0.08599999999999999 0 0  0.08700000000000001 0 0  0.08800000000000001 0 0  0.08900000000000001 0 0  0.09 0 0  0.091 0 0  0.09200000000000001 0 0  0.09300000000000001 0 0  0.094 0 0  0.095 0 0  0.09600000000000002 0 0  0.09700000000000002 0 0  0.098 0 0  0.099 0 0  0.1 0 0  </DataArray>
</Points>
<Cells>
<DataArray  type="UInt32"  Name="connectivity"  format="ascii">0 1  1 2  2 3  3 4  4 5  5 6  6 7  7 8  8 9  9 10  10 11  11 12  12 13  13 14  14 15  15 16  16 17  17 18  18 19  19 20  20 21  21 22  22 23  23 24  24 25  25 26  26 27  27 28  28 29  29 30  30 31  31 32  32 33  33 34  34 35  35 36  36 37  37 38  38 39  39 40  40 41  41 42  42 43  43 44  44 45  45 46  46 47  47 48  48 49  49 50  50 51  51 52  52 53  53 54  54 55  55 56  56 57  57 58  58 59  59 60  60 61  61 62  62 63  63 64  64 65  65 66  66 67  67 68  68 69  69 70  70 71  71 72  72 73  73 74  74 75  75 76  76 77  77 78  78 79  79 80  80 81  81 82  82 83  83 84  84 85  85 86  86 87  87 88  88 89  89 90  90 91  91 92  92 93  93 94  94 95  95 96  96 97  97 98  98 99  99 100  </DataArray>
<DataArray  type="UInt32"  Name="offsets"  format="ascii">2 4 6 8 10 12 14 16 18 20 22 24 26 28 30 32 34 36 38 40 42 44 46 48 50 52 54 56 58 60 62 64 66 68 70 72 74 76 78 80 82 84 86 88 90 92 94 96 98 100 102 104 106 108 110 112 114 116 118 120 122 124 126 128 130 132 134 136 138 140 142 144 146 148 150 152 154 156 158 160 162 164 166 168 170 172 174 176 178 180 182 184 186 188 190 192 194 196 198 200 </DataArray>
<DataArray  type="UInt8"  Name="types"  format="ascii">3 3 3 3 3 3 3 3 3 3 3 3 3 3 3 3 3 3 3 3 3 3 3 3 3 3 3 3 3 3 3 3 3 3 3 3 3 3 3 3 3 3 3 3 3 3 3 3 3 3 3 3 3 3 3 3 3 3 3 3 3 3 3 3 3 3 3 3 3 3 3 3 3 3 3 3 3 3 3 3 3 3 3 3 3 3 3 3 3 3 3 3 3 3 3 3 3 3 3 3 </DataArray>
</Cells>
<PointData  Scalars="f_14"> 
<DataArray  type="Float64"  Name="f_14"  format="ascii">6.4503765943255569e-51  1.5220303324988541e-50  6.5250775062540007e-50  2.9151053962958073e-49  1.3022934424892468e-48  5.8052779571384412e-48  2.5818557784399934e-47  1.1455471406005507e-46  5.0704287792511165e-46  2.2387484847772229e-45  9.8598954586579948e-45  4.3313421251700368e-44  1.8977189510534014e-43  8.2923154502155972e-43  3.6135056847858125e-42  1.5702338629683026e-41  6.8038605048574810e-41  2.9395024148944726e-40  1.2661657161608449e-39  5.4372030598328341e-39  2.3275432862046754e-38  9.9317334223681650e-38  4.2240023857042215e-37  1.7904435487763835e-36  7.5630822276599219e-36  3.1834774001108909e-35  1.3351534402040141e-34  5.5788840302251623e-34  2.3222503770948449e-33  9.6288308830270067e-33  3.9764590143744917e-32  1.6354294459837647e-31  6.6977909347020174e-31  2.7311532381699987e-30  1.1087241478188966e-29  4.4803306754167169e-29  1.8019790032359442e-28  7.2124720041461977e-28  2.8724504078207801e-27  1.1381292567849060e-26  4.4857518552543174e-26  1.7583876412511959e-25  6.8542165180155677e-25  2.6563772837793558e-24  1.0233684029260998e-23  3.9183441310509772e-23  1.4907874894391284e-22  5.6348426565254237e-22  2.1154698253260398e-21  7.8866490077549142e-21  2.9190112289503166e-20  1.0723301989969757e-19  3.9089262525521269e-19  1.4135254170071255e-18  5.0692306469857890e-18  1.8023599352282846e-17  6.3513214053315313e-17  2.2175053439807473e-16  7.6681507405545257e-16  2.6253144096838565e-15  8.8954417850990665e-15  2.9817483790231092e-14  9.8833431529451621e-14  3.2379349262678892e-13  1.0479844821992618e-12  3.3492206337226738e-12  1.0563367299545142e-11  3.2861352814743818e-11  1.0077065963959227e-10  3.0442145901237577e-10  9.0535894643088217e-10  2.6489076996242708e-09  7.6189127165377150e-09  2.1525924542197637e-08  5.9692256200684596e-08  1.6232594887899345e-07  4.3249327737840266e-07  1.1279268218241349e-06  2.8764863265645505e-06  7.1659606694605064e-06  1.7420071493176358e-05  4.1276642275277575e-05  9.5222062406793618e-05  2.1361711107169645e-04  4.6545283467327357e-04  9.8384309906318808e-04  2.0149030134199043e-03  3.9933059867507366e-03  7.6497106618305432e-03  1.4148031473170265e-02  2.5236060285507251e-02  4.3371172393854920e-02  7.1758273548822485e-02  1.1422061977754250e-01  1.7483160280259596e-01  2.5728163427966333e-01  3.6404110278056223e-01  4.9548746927173110e-01  6.4924778739642774e-01  8.2001532554568113e-01  1.0000000000000000e+00  </DataArray> 
</PointData> 
</Piece>
</UnstructuredGrid>
</VTKFile>