<?xml version="1.0"?>
<VTKFile type="UnstructuredGrid"  version="0.1"  >
<UnstructuredGrid>
<Piece  NumberOfPoints="101" NumberOfCells="100">
<Points>
<DataArray  type="Float64"  NumberOfComponents="3"  format="ascii">0 0 0  0.001 0 0  0.002 0 0  0.003 0 0  0.004 0 0  0.005 0 0  0.006000000000000001 0 0  0.007000000000000001 0 0  0.008 0 0  0.009000000000000001 0 0  0.01 0 0  0.011 0 0  0.012 0 0  0.013 0 0  0.014 0 0  0.015 0 0  0.016 0 0  0.017 0 0  0.018 0 0  0.019 0 0  0.02 0 0  0.021 0 0  0.022 0 0  0.023 0 0  0.024 0 0  0.025 0 0  0.026 0 0  0.027 0 0  0.028 0 0  0.029 0 0  0.03 0 0  0.031 0 0  0.032 0 0  0.033 0 0  0.034 0 0  0.035 0 0  0.036 0 0  0.03700000000000001 0 0  0.03800000000000001 0 0  0.03900000000000001 0 0  0.04 0 0  0.04100000000000001 0 0  0.042 0 0  0.043 0 0  0.044 0 0  0.045 0 0  0.04600000000000001 0 0  0.047 0 0  0.04800000000000001 0 0  0.049 0 0  0.05 0 0  0.051 0 0  0.052 0 0  0.05300000000000001 0 0  0.05400000000000001 0 0  0.055 0 0  0.05600000000000001 0 0  0.057 0 0  0.05800000000000001 0 0  0.059 0 0  0.06 0 0  0.06100000000000001 0 0  0.062 0 0  0.063 0 0  0.064 0 0  0.065 0 0  0.066 0 0  0.067 0 0  0.068 0 0  0.06900000000000001 0 0  0.07000000000000001 0 0  0.07100000000000001 0 0  0.07200000000000001 0 0  0.07300000000000001 0 0  0.07400000000000001 0 0  0.075 0 0  0.07600000000000001 0 0  0.077 0 0  0.07800000000000001 0 0  0.079 0 0  0.08 0 0  0.081 0 0  0.08200000000000002 0 0  0.083 0 0  0.08400000000000001 0 0  0.08500000000000001 0 0  0.08599999999999999 0 0  0.08700000000000001 0 0  0.08800000000000001 0 0  0.08900000000000001 0 0  0.09 0 0  0.091 0 0  0.09200000000000001 0 0  0.09300000000000001 0 0  0.094 0 0  0.095 0 0  0.09600000000000002 0 0  0.09700000000000002 0 0  0.098 0 0  0.099 0 0  0.1 0 0  </DataArray>
</Points>
<Cells>
<DataArray  type="UInt32"  Name="connectivity"  format="ascii">0 1  1 2  2 3  3 4  4 5  5 6  6 7  7 8  8 9  9 10  10 11  11 12  12 13  13 14  14 15  15 16  16 17  17 18  18 19  19 20  20 21  21 22  22 23  23 24  24 25  25 26  26 27  27 28  28 29  29 30  30 31  31 32  32 33  33 34  34 35  35 36  36 37  37 38  38 39  39 40  40 41  41 42  42 43  43 44  44 45  45 46  46 47  47 48  48 49  49 50  50 51  51 52  52 53  53 54  54 55  55 56  56 57  57 58  58 59  59 60  60 61  61 62  62 63  63 64  64 65  65 66  66 67  67 68  68 69  69 70  70 71  71 72  72 73  73 74  74 75  75 76  76 77  77 78  78 79  79 80  80 81  81 82  82 83  83 84  84 85  85 86  86 87  87 88  88 89  89 90  90 91  91 92  92 93  93 94  94 95  95 96  96 97  97 98  98 99  99 100  </DataArray>
<DataArray  type="UInt32"  Name="offsets"  format="ascii">2 4 6 8 10 12 14 16 18 20 22 24 26 28 30 32 34 36 38 40 42 44 46 48 50 52 54 56 58 60 62 64 66 68 70 72 74 76 78 80 82 84 86 88 90 92 94 96 98 100 102 104 106 108 110 112 114 116 118 120 122 124 126 128 130 132 134 136 138 140 142 144 146 148 150 152 154 156 158 160 162 164 166 168 170 172 174 176 178 180 182 184 186 188 190 192 194 196 198 200 </DataArray>
<DataArray  type="UInt8"  Name="types"  format="ascii">3 3 3 3 3 3 3 3 3 3 3 3 3 3 3 3 3 3 3 3 3 3 3 3 3 3 3 3 3 3 3 3 3 3 3 3 3 3 3 3 3 3 3 3 3 3 3 3 3 3 3 3 3 3 3 3 3 3 3 3 3 3 3 3 3 3 3 3 3 3 3 3 3 3 3 3 3 3 3 3 3 3 3 3 3 3 3 3 3 3 3 3 3 3 3 3 3 3 3 3 </DataArray>
</Cells>
<PointData  Scalars="f_14"> 
<DataArray  type="Float64"  Name="f_14"  format="ascii">3.3739338379023326e-06  3.4515024608868134e-06  3.6873278583614441e-06  4.0908732570860441e-06  4.6782621623032390e-06  5.4728148845423244e-06  6.5058184836405287e-06  7.8175492497535581e-06  9.4585727480307924e-06  1.1491352687373642e-05  1.3992206499475171e-05  1.7053652592202158e-05  2.0787201824669074e-05  2.5326653884854145e-05  3.0831967968366617e-05  3.7493786479756309e-05  4.5538700410116722e-05  5.5235355571703329e-05  6.6901509953678991e-05  8.0912164037416599e-05  9.7708897877854742e-05  1.1781056098566229e-04  1.4182547335865546e-04  1.7046530818912002e-04  2.0456083854452571e-04  2.4507974135513038e-04  2.9314666195602470e-04  3.5006575077309012e-04  4.1734588999657889e-04  4.9672883167058775e-04  5.9022046889397315e-04  7.0012545806768958e-04  8.2908540156699051e-04  9.8012078604690911e-04  1.1566768509503327e-03  1.3626735338015334e-03  1.6025596026519953e-03  1.8813710407371339e-03  2.2047936931864891e-03  2.5792301197696708e-03  3.0118705205345602e-03  3.5107675123372591e-03  4.0849144334078836e-03  4.7443267402209541e-03  5.5001259363134927e-03  6.3646253369298309e-03  7.3514168274668532e-03  8.4754576190746288e-03  9.7531558433335847e-03  1.1202453662073605e-02  1.2842906401042005e-02  1.4695756050705926e-02  1.6783997317959352e-02  1.9132434263353509e-02  2.1767725424599080e-02  2.4718415213798740e-02  2.8014949288760482e-02  3.1689671543599959e-02  3.5776800346503747e-02  4.0312381678717292e-02  4.5334216903991108e-02  5.0881763026812431e-02  5.6996003485040241e-02  6.3719287771391256e-02  7.1095138490810700e-02  7.9168024837982257e-02  8.7983101920399015e-02  9.7585915855146907e-02  1.0802207512757186e-01  1.1933688931108749e-01  1.3157497690128220e-01  1.4477984470394625e-01  1.5899344192346723e-01  1.7425569281125164e-01  1.9060401243786115e-01  2.0807281083056098e-01  2.2669299135220447e-01  2.4649144976955473e-01  2.6749058095103900e-01  2.8970780052773998e-01  3.1315508913058826e-01  3.3783856696610992e-01  3.6375810650004853e-01  3.9090699087259534e-01  4.1927162536415297e-01  4.4883130876336697e-01  4.7955807086059415e-01  5.1141658150510927e-01  5.4436413573272968e-01  5.7835071840596775e-01  6.1331915062913356e-01  6.4920531892786404e-01  6.8593848684129977e-01  7.2344168719353463e-01  7.6163219191885534e-01  8.0042205494392060e-01  8.3971872231101341e-01  8.7942570249095064e-01  9.1944328871189485e-01  9.5966932414861228e-01  1.0000000000000000e+00  </DataArray> 
</PointData> 
</Piece>
</UnstructuredGrid>
</VTKFile>