<?xml version="1.0"?>
<VTKFile type="UnstructuredGrid"  version="0.1"  >
<UnstructuredGrid>
<Piece  NumberOfPoints="101" NumberOfCells="100">
<Points>
<DataArray  type="Float64"  NumberOfComponents="3"  format="ascii">0 0 0  0.001 0 0  0.002 0 0  0.003 0 0  0.004 0 0  0.005 0 0  0.006000000000000001 0 0  0.007000000000000001 0 0  0.008 0 0  0.009000000000000001 0 0  0.01 0 0  0.011 0 0  0.012 0 0  0.013 0 0  0.014 0 0  0.015 0 0  0.016 0 0  0.017 0 0  0.018 0 0  0.019 0 0  0.02 0 0  0.021 0 0  0.022 0 0  0.023 0 0  0.024 0 0  0.025 0 0  0.026 0 0  0.027 0 0  0.028 0 0  0.029 0 0  0.03 0 0  0.031 0 0  0.032 0 0  0.033 0 0  0.034 0 0  0.035 0 0  0.036 0 0  0.03700000000000001 0 0  0.03800000000000001 0 0  0.03900000000000001 0 0  0.04 0 0  0.04100000000000001 0 0  0.042 0 0  0.043 0 0  0.044 0 0  0.045 0 0  0.04600000000000001 0 0  0.047 0 0  0.04800000000000001 0 0  0.049 0 0  0.05 0 0  0.051 0 0  0.052 0 0  0.05300000000000001 0 0  0.05400000000000001 0 0  0.055 0 0  0.05600000000000001 0 0  0.057 0 0  0.05800000000000001 0 0  0.059 0 0  0.06 0 0  0.06100000000000001 0 0  0.062 0 0  0.063 0 0  0.064 0 0  0.065 0 0  0.066 0 0  0.067 0 0  0.068 0 0  0.06900000000000001 0 0  0.07000000000000001 0 0  0.07100000000000001 0 0  0.07200000000000001 0 0  0.07300000000000001 0 0  0.07400000000000001 0 0  0.075 0 0  0.07600000000000001 0 0  0.077 0 0  0.07800000000000001 0 0  0.079 0 0  0.08 0 0  0.081 0 0  0.08200000000000002 0 0  0.083 0 0  0.08400000000000001 0 0  0.08500000000000001 0 0  0.08599999999999999 0 0  0.08700000000000001 0 0  0.08800000000000001 0 0  0.08900000000000001 0 0  0.09 0 0  0.091 0 0  0.09200000000000001 0 0  0.09300000000000001 0 0  0.094 0 0  0.095 0 0  0.09600000000000002 0 0  0.09700000000000002 0 0  0.098 0 0  0.099 0 0  0.1 0 0  </DataArray>
</Points>
<Cells>
<DataArray  type="UInt32"  Name="connectivity"  format="ascii">0 1  1 2  2 3  3 4  4 5  5 6  6 7  7 8  8 9  9 10  10 11  11 12  12 13  13 14  14 15  15 16  16 17  17 18  18 19  19 20  20 21  21 22  22 23  23 24  24 25  25 26  26 27  27 28  28 29  29 30  30 31  31 32  32 33  33 34  34 35  35 36  36 37  37 38  38 39  39 40  40 41  41 42  42 43  43 44  44 45  45 46  46 47  47 48  48 49  49 50  50 51  51 52  52 53  53 54  54 55  55 56  56 57  57 58  58 59  59 60  60 61  61 62  62 63  63 64  64 65  65 66  66 67  67 68  68 69  69 70  70 71  71 72  72 73  73 74  74 75  75 76  76 77  77 78  78 79  79 80  80 81  81 82  82 83  83 84  84 85  85 86  86 87  87 88  88 89  89 90  90 91  91 92  92 93  93 94  94 95  95 96  96 97  97 98  98 99  99 100  </DataArray>
<DataArray  type="UInt32"  Name="offsets"  format="ascii">2 4 6 8 10 12 14 16 18 20 22 24 26 28 30 32 34 36 38 40 42 44 46 48 50 52 54 56 58 60 62 64 66 68 70 72 74 76 78 80 82 84 86 88 90 92 94 96 98 100 102 104 106 108 110 112 114 116 118 120 122 124 126 128 130 132 134 136 138 140 142 144 146 148 150 152 154 156 158 160 162 164 166 168 170 172 174 176 178 180 182 184 186 188 190 192 194 196 198 200 </DataArray>
<DataArray  type="UInt8"  Name="types"  format="ascii">3 3 3 3 3 3 3 3 3 3 3 3 3 3 3 3 3 3 3 3 3 3 3 3 3 3 3 3 3 3 3 3 3 3 3 3 3 3 3 3 3 3 3 3 3 3 3 3 3 3 3 3 3 3 3 3 3 3 3 3 3 3 3 3 3 3 3 3 3 3 3 3 3 3 3 3 3 3 3 3 3 3 3 3 3 3 3 3 3 3 3 3 3 3 3 3 3 3 3 3 </DataArray>
</Cells>
<PointData  Scalars="f_14"> 
<DataArray  type="Float64"  Name="f_14"  format="ascii">9.1097156766632421e-04  9.1797000361077015e-04  9.3904372167278433e-04  9.7442842575200001e-04  1.0245185318219871e-03  1.0898695277811272e-03  1.1712012684225621e-03  1.2694021964687198e-03  1.3855344776987995e-03  1.5208400350383113e-03  1.6767474630305062e-03  1.8548798003261478e-03  2.0570631336707585e-03  2.2853360023024228e-03  2.5419595666693862e-03  2.8294284999123512e-03  3.1504825546161143e-03  3.5081187509110683e-03  3.9056041250981454e-03  4.3464889705904829e-03  4.8346204951313278e-03  5.3741568099900669e-03  5.9695811581974116e-03  6.6257162799085029e-03  7.3477388037420663e-03  8.1411935435098323e-03  9.0120075702098852e-03  9.9665039196086477e-03  1.1011414786289196e-02  1.2153894045818838e-02  1.3401528937818652e-02  1.4762350734342691e-02  1.6244844210245035e-02  1.7857955725286565e-02  1.9611099721773249e-02  2.1514163436692893e-02  2.3577509623797479e-02  2.5811977079034987e-02  2.8228878762337008e-02  3.0839997310181447e-02  3.3657577736730879e-02  3.6694317126844900e-02  3.9963351132013734e-02  4.3478237090381879e-02  4.7252933604621197e-02  5.1301776426557519e-02  5.5639450515203262e-02  6.0280958155226903e-02  6.5241583045902191e-02  7.0536850296177359e-02  7.6182482289631676e-02  8.2194350413619652e-02  8.8588422679713896e-02  9.5380707297447090e-02  1.0258719230010899e-01  1.1022378135970967e-01  1.1830622596787480e-01  1.2685005420005629e-01  1.3587049632165385e-01  1.4538240753603443e-01  1.5540018821559501e-01  1.6593770199745575e-01  1.7700819216464536e-01  1.8862419677123682e-01  2.0079746300531304e-01  2.1353886131639738e-01  2.2685829986355252e-01  2.4076463986626390e-01  2.5526561246200047e-01  2.7036773769154465e-01  2.8607624624539357e-01  3.0239500461138680e-01  3.1932644426488443e-01  3.3687149553803764e-01  3.5502952679375355e-01  3.7379828951270971e-01  3.9317386987815822e-01  4.1315064741325536e-01  4.3372126118938681e-01  4.5487658408150611e-01  4.7660570549822351e-01  4.9889592296045221e-01  5.2173274284337856e-01  5.4509989053272156e-01  5.6897933017832614e-01  5.9335129415662613e-01  6.1819432227916438e-01  6.4348531070782045e-01  6.6919957045947698e-01  6.9531089530438173e-01  7.2179163878416686e-01  7.4861279999834407e-01  7.7574411773281371e-01  8.0315417243145826e-01  8.3081049544296759e-01  8.5867968491049096e-01  8.8672752761227491e-01  9.1491912600779268e-01  9.4321902969665528e-01  9.7159137045734101e-01  1.0000000000000000e+00  </DataArray> 
</PointData> 
</Piece>
</UnstructuredGrid>
</VTKFile>