<?xml version="1.0"?>
<VTKFile type="UnstructuredGrid"  version="0.1"  >
<UnstructuredGrid>
<Piece  NumberOfPoints="101" NumberOfCells="100">
<Points>
<DataArray  type="Float64"  NumberOfComponents="3"  format="ascii">0 0 0  0.001 0 0  0.002 0 0  0.003 0 0  0.004 0 0  0.005 0 0  0.006000000000000001 0 0  0.007000000000000001 0 0  0.008 0 0  0.009000000000000001 0 0  0.01 0 0  0.011 0 0  0.012 0 0  0.013 0 0  0.014 0 0  0.015 0 0  0.016 0 0  0.017 0 0  0.018 0 0  0.019 0 0  0.02 0 0  0.021 0 0  0.022 0 0  0.023 0 0  0.024 0 0  0.025 0 0  0.026 0 0  0.027 0 0  0.028 0 0  0.029 0 0  0.03 0 0  0.031 0 0  0.032 0 0  0.033 0 0  0.034 0 0  0.035 0 0  0.036 0 0  0.03700000000000001 0 0  0.03800000000000001 0 0  0.03900000000000001 0 0  0.04 0 0  0.04100000000000001 0 0  0.042 0 0  0.043 0 0  0.044 0 0  0.045 0 0  0.04600000000000001 0 0  0.047 0 0  0.04800000000000001 0 0  0.049 0 0  0.05 0 0  0.051 0 0  0.052 0 0  0.05300000000000001 0 0  0.05400000000000001 0 0  0.055 0 0  0.05600000000000001 0 0  0.057 0 0  0.05800000000000001 0 0  0.059 0 0  0.06 0 0  0.06100000000000001 0 0  0.062 0 0  0.063 0 0  0.064 0 0  0.065 0 0  0.066 0 0  0.067 0 0  0.068 0 0  0.06900000000000001 0 0  0.07000000000000001 0 0  0.07100000000000001 0 0  0.07200000000000001 0 0  0.07300000000000001 0 0  0.07400000000000001 0 0  0.075 0 0  0.07600000000000001 0 0  0.077 0 0  0.07800000000000001 0 0  0.079 0 0  0.08 0 0  0.081 0 0  0.08200000000000002 0 0  0.083 0 0  0.08400000000000001 0 0  0.08500000000000001 0 0  0.08599999999999999 0 0  0.08700000000000001 0 0  0.08800000000000001 0 0  0.08900000000000001 0 0  0.09 0 0  0.091 0 0  0.09200000000000001 0 0  0.09300000000000001 0 0  0.094 0 0  0.095 0 0  0.09600000000000002 0 0  0.09700000000000002 0 0  0.098 0 0  0.099 0 0  0.1 0 0  </DataArray>
</Points>
<Cells>
<DataArray  type="UInt32"  Name="connectivity"  format="ascii">0 1  1 2  2 3  3 4  4 5  5 6  6 7  7 8  8 9  9 10  10 11  11 12  12 13  13 14  14 15  15 16  16 17  17 18  18 19  19 20  20 21  21 22  22 23  23 24  24 25  25 26  26 27  27 28  28 29  29 30  30 31  31 32  32 33  33 34  34 35  35 36  36 37  37 38  38 39  39 40  40 41  41 42  42 43  43 44  44 45  45 46  46 47  47 48  48 49  49 50  50 51  51 52  52 53  53 54  54 55  55 56  56 57  57 58  58 59  59 60  60 61  61 62  62 63  63 64  64 65  65 66  66 67  67 68  68 69  69 70  70 71  71 72  72 73  73 74  74 75  75 76  76 77  77 78  78 79  79 80  80 81  81 82  82 83  83 84  84 85  85 86  86 87  87 88  88 89  89 90  90 91  91 92  92 93  93 94  94 95  95 96  96 97  97 98  98 99  99 100  </DataArray>
<DataArray  type="UInt32"  Name="offsets"  format="ascii">2 4 6 8 10 12 14 16 18 20 22 24 26 28 30 32 34 36 38 40 42 44 46 48 50 52 54 56 58 60 62 64 66 68 70 72 74 76 78 80 82 84 86 88 90 92 94 96 98 100 102 104 106 108 110 112 114 116 118 120 122 124 126 128 130 132 134 136 138 140 142 144 146 148 150 152 154 156 158 160 162 164 166 168 170 172 174 176 178 180 182 184 186 188 190 192 194 196 198 200 </DataArray>
<DataArray  type="UInt8"  Name="types"  format="ascii">3 3 3 3 3 3 3 3 3 3 3 3 3 3 3 3 3 3 3 3 3 3 3 3 3 3 3 3 3 3 3 3 3 3 3 3 3 3 3 3 3 3 3 3 3 3 3 3 3 3 3 3 3 3 3 3 3 3 3 3 3 3 3 3 3 3 3 3 3 3 3 3 3 3 3 3 3 3 3 3 3 3 3 3 3 3 3 3 3 3 3 3 3 3 3 3 3 3 3 3 </DataArray>
</Cells>
<PointData  Scalars="f_14"> 
<DataArray  type="Float64"  Name="f_14"  format="ascii">2.4812945282214436e-12  2.6571286919907761e-12  3.2088527972709353e-12  4.2123615699239825e-12  5.8053272686321628e-12  8.2054738947894031e-12  1.1739355689525563e-11  1.6885298676895230e-11  2.4335932474791413e-11  3.5088162436928578e-11  5.0571794087657811e-11  7.2832713340515224e-11  1.0479308609796814e-10  1.5062021462709074e-10  2.1624850564756794e-10  3.1011688867499931e-10  4.4420893341808007e-10  6.3551754893456970e-10  9.0810420645820208e-10  1.2959891806433993e-09  1.8472012725327994e-09  2.6294422908863270e-09  3.7379960354837335e-09  5.3067509974137619e-09  7.5235339011502314e-09  1.0651399114260606e-08  1.5058129192028169e-08  2.1257031056638830e-08  2.9963236052624573e-08  4.2171230678298705e-08  5.9261390891499916e-08  8.3146041448466304e-08  1.1646924232728281e-07  1.6287941687840905e-07  2.2740047106240280e-07  3.1693571487472001e-07  4.4095033583461045e-07  6.1239322242423702e-07  8.4893865170773283e-07  1.1746540793187128e-06  1.6222336835002318e-06  2.2359805143626289e-06  3.0757756768224052e-06  4.2223441063101046e-06  5.7842170321494882e-06  7.9069057845281677e-06  1.0784945658077588e-05  1.4677648481519168e-05  1.9929625677503207e-05  2.6997418145821475e-05  3.6483904249379492e-05  4.9182562012621938e-05  6.6134145904704524e-05  8.8698911201594467e-05  1.1864818721856020e-04  1.5827986901006873e-04  2.1056326496485749e-04  2.7931969741380464e-04  3.6944628710870394e-04  4.8719142869091555e-04  6.4049153362485522e-04  8.3937960753835460e-04  1.0964770410131245e-03  1.4275804947954389e-03  1.8523557838289681e-03  2.3951500018803622e-03  3.0859315327732657e-03  3.9613647823762742e-03  5.0660221274972782e-03  6.4537293926901331e-03  8.1890328264383663e-03  1.0348764795960039e-02  1.3023672092172570e-02  1.6320054823736049e-02  2.0361345593279779e-02  2.5289538496835590e-02  3.1266356345302705e-02  3.8474023684336750e-02  4.7115494472193015e-02  5.7413968929362576e-02  6.9611526792487707e-02  8.3966706981942460e-02  1.0075087960601799e-01  1.2024328812293736e-01  1.4272468957328055e-01  1.6846959016377711e-01  1.9773716157059809e-01  2.3076102744908464e-01  2.6773822460338692e-01  3.0881776125597665e-01  3.5408930556992918e-01  4.0357262884693557e-01  4.5720848664924335e-01  5.1485163511056564e-01  5.7626663896342034e-01  6.4112702666242871e-01  7.0901818672172978e-01  7.7944418536606952e-01  8.5183843345669297e-01  9.2557786142454046e-01  1.0000000000000000e+00  </DataArray> 
</PointData> 
</Piece>
</UnstructuredGrid>
</VTKFile>