<?xml version="1.0"?>
<VTKFile type="UnstructuredGrid"  version="0.1"  >
<UnstructuredGrid>
<Piece  NumberOfPoints="101" NumberOfCells="100">
<Points>
<DataArray  type="Float64"  NumberOfComponents="3"  format="ascii">0 0 0  0.001 0 0  0.002 0 0  0.003 0 0  0.004 0 0  0.005 0 0  0.006000000000000001 0 0  0.007000000000000001 0 0  0.008 0 0  0.009000000000000001 0 0  0.01 0 0  0.011 0 0  0.012 0 0  0.013 0 0  0.014 0 0  0.015 0 0  0.016 0 0  0.017 0 0  0.018 0 0  0.019 0 0  0.02 0 0  0.021 0 0  0.022 0 0  0.023 0 0  0.024 0 0  0.025 0 0  0.026 0 0  0.027 0 0  0.028 0 0  0.029 0 0  0.03 0 0  0.031 0 0  0.032 0 0  0.033 0 0  0.034 0 0  0.035 0 0  0.036 0 0  0.03700000000000001 0 0  0.03800000000000001 0 0  0.03900000000000001 0 0  0.04 0 0  0.04100000000000001 0 0  0.042 0 0  0.043 0 0  0.044 0 0  0.045 0 0  0.04600000000000001 0 0  0.047 0 0  0.04800000000000001 0 0  0.049 0 0  0.05 0 0  0.051 0 0  0.052 0 0  0.05300000000000001 0 0  0.05400000000000001 0 0  0.055 0 0  0.05600000000000001 0 0  0.057 0 0  0.05800000000000001 0 0  0.059 0 0  0.06 0 0  0.06100000000000001 0 0  0.062 0 0  0.063 0 0  0.064 0 0  0.065 0 0  0.066 0 0  0.067 0 0  0.068 0 0  0.06900000000000001 0 0  0.07000000000000001 0 0  0.07100000000000001 0 0  0.07200000000000001 0 0  0.07300000000000001 0 0  0.07400000000000001 0 0  0.075 0 0  0.07600000000000001 0 0  0.077 0 0  0.07800000000000001 0 0  0.079 0 0  0.08 0 0  0.081 0 0  0.08200000000000002 0 0  0.083 0 0  0.08400000000000001 0 0  0.08500000000000001 0 0  0.08599999999999999 0 0  0.08700000000000001 0 0  0.08800000000000001 0 0  0.08900000000000001 0 0  0.09 0 0  0.091 0 0  0.09200000000000001 0 0  0.09300000000000001 0 0  0.094 0 0  0.095 0 0  0.09600000000000002 0 0  0.09700000000000002 0 0  0.098 0 0  0.099 0 0  0.1 0 0  </DataArray>
</Points>
<Cells>
<DataArray  type="UInt32"  Name="connectivity"  format="ascii">0 1  1 2  2 3  3 4  4 5  5 6  6 7  7 8  8 9  9 10  10 11  11 12  12 13  13 14  14 15  15 16  16 17  17 18  18 19  19 20  20 21  21 22  22 23  23 24  24 25  25 26  26 27  27 28  28 29  29 30  30 31  31 32  32 33  33 34  34 35  35 36  36 37  37 38  38 39  39 40  40 41  41 42  42 43  43 44  44 45  45 46  46 47  47 48  48 49  49 50  50 51  51 52  52 53  53 54  54 55  55 56  56 57  57 58  58 59  59 60  60 61  61 62  62 63  63 64  64 65  65 66  66 67  67 68  68 69  69 70  70 71  71 72  72 73  73 74  74 75  75 76  76 77  77 78  78 79  79 80  80 81  81 82  82 83  83 84  84 85  85 86  86 87  87 88  88 89  89 90  90 91  91 92  92 93  93 94  94 95  95 96  96 97  97 98  98 99  99 100  </DataArray>
<DataArray  type="UInt32"  Name="offsets"  format="ascii">2 4 6 8 10 12 14 16 18 20 22 24 26 28 30 32 34 36 38 40 42 44 46 48 50 52 54 56 58 60 62 64 66 68 70 72 74 76 78 80 82 84 86 88 90 92 94 96 98 100 102 104 106 108 110 112 114 116 118 120 122 124 126 128 130 132 134 136 138 140 142 144 146 148 150 152 154 156 158 160 162 164 166 168 170 172 174 176 178 180 182 184 186 188 190 192 194 196 198 200 </DataArray>
<DataArray  type="UInt8"  Name="types"  format="ascii">3 3 3 3 3 3 3 3 3 3 3 3 3 3 3 3 3 3 3 3 3 3 3 3 3 3 3 3 3 3 3 3 3 3 3 3 3 3 3 3 3 3 3 3 3 3 3 3 3 3 3 3 3 3 3 3 3 3 3 3 3 3 3 3 3 3 3 3 3 3 3 3 3 3 3 3 3 3 3 3 3 3 3 3 3 3 3 3 3 3 3 3 3 3 3 3 3 3 3 3 </DataArray>
</Cells>
<PointData  Scalars="f_14"> 
<DataArray  type="Float64"  Name="f_14"  format="ascii">5.8482659852472954e-12  6.2465436821697756e-12  7.4939626310811447e-12  9.7549800685755161e-12  1.3326842372275906e-11  1.8677272480728039e-11  2.6503507418516168e-11  3.7819824586693947e-11  5.4084073723100671e-11  7.7378308867758411e-11  1.1066489862302553e-10  1.5814817134819954e-10  2.2578366295545668e-10  3.2199366119887992e-10  4.5867073476089817e-10  6.5258269125522013e-10  9.2733618682521216e-10  1.3161164460255968e-09  1.8655032598222507e-09  2.6407767511278424e-09  3.7332813140707680e-09  5.2706274228709881e-09  7.4307984941777924e-09  1.0461620188872709e-08  1.4707577806799861e-08  2.0646680734699851e-08  2.8941033456258712e-08  4.0506062493970860e-08  5.6605075700728629e-08  7.8978135787861059e-08  1.1001729800460187e-07  1.5300433150283756e-07  2.1243242399001291e-07  2.9444045693882839e-07  4.0739774192334407e-07  5.6268927391979093e-07  7.7576740210896863e-07  1.0675563702667022e-06  1.4663227198193364e-06  2.0101586685028752e-06  2.7502692302897176e-06  3.7553094090130113e-06  5.1170881525960350e-06  6.9580443274637197e-06  9.4410108085340824e-06  1.2781920581408911e-05  1.7266278896021905e-05  2.3270434019534253e-05  3.1288932596319095e-05  4.1969551006192127e-05  5.6157958482156102e-05  7.4954397809523591e-05  9.9785270870942830e-05  1.3249309290477873e-04  1.7544893177244409e-04  2.3169217278893572e-04  3.0510323517420534e-04  4.0061569341669396e-04  5.2447509462753839e-04  6.8455256538997339e-04  8.9072200472554682e-04  1.1553101783157219e-03  1.4936292533947741e-03  1.9246011075260906e-03  2.4714819440463595e-03  3.1626941622795693e-03  4.0327698495959954e-03  5.1234064591526409e-03  6.4846299854484594e-03  8.1760540425482621e-03  1.0268214525434317e-02  1.2843948911137475e-02  1.5999776770531399e-02  1.9847223917036159e-02  2.4514017232153296e-02  3.0145061257512283e-02  3.6903092105469708e-02  4.4968890412112120e-02  5.4540924550128378e-02  6.5834290020339317e-02  7.9078812919920582e-02  9.4516196752016599e-02  1.1239611454020534e-01  1.3297118376147060e-01  1.5649081080367414e-01  1.8319395422798873e-01  2.1330093046004542e-01  2.4700446844431084e-01  2.8446030637622993e-01  3.2577770735545120e-01  3.7101034384572640e-01  4.2014805460132032e-01  4.7311000371971640e-01  5.2973976229893938e-01  5.8980278362851102e-01  6.5298665103129316e-01  7.1890434563523586e-01  7.8710061627834305e-01  8.5706134663362232e-01  9.2822562029485545e-01  1.0000000000000000e+00  </DataArray> 
</PointData> 
</Piece>
</UnstructuredGrid>
</VTKFile>