<?xml version="1.0"?>
<VTKFile type="UnstructuredGrid"  version="0.1"  >
<UnstructuredGrid>
<Piece  NumberOfPoints="101" NumberOfCells="100">
<Points>
<DataArray  type="Float64"  NumberOfComponents="3"  format="ascii">0 0 0  0.001 0 0  0.002 0 0  0.003 0 0  0.004 0 0  0.005 0 0  0.006000000000000001 0 0  0.007000000000000001 0 0  0.008 0 0  0.009000000000000001 0 0  0.01 0 0  0.011 0 0  0.012 0 0  0.013 0 0  0.014 0 0  0.015 0 0  0.016 0 0  0.017 0 0  0.018 0 0  0.019 0 0  0.02 0 0  0.021 0 0  0.022 0 0  0.023 0 0  0.024 0 0  0.025 0 0  0.026 0 0  0.027 0 0  0.028 0 0  0.029 0 0  0.03 0 0  0.031 0 0  0.032 0 0  0.033 0 0  0.034 0 0  0.035 0 0  0.036 0 0  0.03700000000000001 0 0  0.03800000000000001 0 0  0.03900000000000001 0 0  0.04 0 0  0.04100000000000001 0 0  0.042 0 0  0.043 0 0  0.044 0 0  0.045 0 0  0.04600000000000001 0 0  0.047 0 0  0.04800000000000001 0 0  0.049 0 0  0.05 0 0  0.051 0 0  0.052 0 0  0.05300000000000001 0 0  0.05400000000000001 0 0  0.055 0 0  0.05600000000000001 0 0  0.057 0 0  0.05800000000000001 0 0  0.059 0 0  0.06 0 0  0.06100000000000001 0 0  0.062 0 0  0.063 0 0  0.064 0 0  0.065 0 0  0.066 0 0  0.067 0 0  0.068 0 0  0.06900000000000001 0 0  0.07000000000000001 0 0  0.07100000000000001 0 0  0.07200000000000001 0 0  0.07300000000000001 0 0  0.07400000000000001 0 0  0.075 0 0  0.07600000000000001 0 0  0.077 0 0  0.07800000000000001 0 0  0.079 0 0  0.08 0 0  0.081 0 0  0.08200000000000002 0 0  0.083 0 0  0.08400000000000001 0 0  0.08500000000000001 0 0  0.08599999999999999 0 0  0.08700000000000001 0 0  0.08800000000000001 0 0  0.08900000000000001 0 0  0.09 0 0  0.091 0 0  0.09200000000000001 0 0  0.09300000000000001 0 0  0.094 0 0  0.095 0 0  0.09600000000000002 0 0  0.09700000000000002 0 0  0.098 0 0  0.099 0 0  0.1 0 0  </DataArray>
</Points>
<Cells>
<DataArray  type="UInt32"  Name="connectivity"  format="ascii">0 1  1 2  2 3  3 4  4 5  5 6  6 7  7 8  8 9  9 10  10 11  11 12  12 13  13 14  14 15  15 16  16 17  17 18  18 19  19 20  20 21  21 22  22 23  23 24  24 25  25 26  26 27  27 28  28 29  29 30  30 31  31 32  32 33  33 34  34 35  35 36  36 37  37 38  38 39  39 40  40 41  41 42  42 43  43 44  44 45  45 46  46 47  47 48  48 49  49 50  50 51  51 52  52 53  53 54  54 55  55 56  56 57  57 58  58 59  59 60  60 61  61 62  62 63  63 64  64 65  65 66  66 67  67 68  68 69  69 70  70 71  71 72  72 73  73 74  74 75  75 76  76 77  77 78  78 79  79 80  80 81  81 82  82 83  83 84  84 85  85 86  86 87  87 88  88 89  89 90  90 91  91 92  92 93  93 94  94 95  95 96  96 97  97 98  98 99  99 100  </DataArray>
<DataArray  type="UInt32"  Name="offsets"  format="ascii">2 4 6 8 10 12 14 16 18 20 22 24 26 28 30 32 34 36 38 40 42 44 46 48 50 52 54 56 58 60 62 64 66 68 70 72 74 76 78 80 82 84 86 88 90 92 94 96 98 100 102 104 106 108 110 112 114 116 118 120 122 124 126 128 130 132 134 136 138 140 142 144 146 148 150 152 154 156 158 160 162 164 166 168 170 172 174 176 178 180 182 184 186 188 190 192 194 196 198 200 </DataArray>
<DataArray  type="UInt8"  Name="types"  format="ascii">3 3 3 3 3 3 3 3 3 3 3 3 3 3 3 3 3 3 3 3 3 3 3 3 3 3 3 3 3 3 3 3 3 3 3 3 3 3 3 3 3 3 3 3 3 3 3 3 3 3 3 3 3 3 3 3 3 3 3 3 3 3 3 3 3 3 3 3 3 3 3 3 3 3 3 3 3 3 3 3 3 3 3 3 3 3 3 3 3 3 3 3 3 3 3 3 3 3 3 3 </DataArray>
</Cells>
<PointData  Scalars="f_14"> 
<DataArray  type="Float64"  Name="f_14"  format="ascii">1.3370783859696350e-06  1.3718224697437062e-06  1.4776574779702854e-06  1.6594548400678152e-06  1.9255461110218451e-06  2.2880486902697399e-06  2.7633358945550745e-06  3.3726657933240810e-06  4.1429878214415758e-06  5.1079511582409251e-06  6.3091442865026042e-06  7.7976011017884989e-06  9.6356155124181353e-06  1.1898913731820079e-05  1.4679241492898966e-05  1.8087432277672220e-05  2.2257032415916391e-05  2.7348569613977195e-05  3.3554563164536459e-05  4.1105386776207823e-05  5.0276108640476889e-05  6.1394447985022764e-05  7.4850002872938842e-05  9.1104920279596750e-05  1.1070619634468313e-04  1.3429981192902016e-04  1.6264692590936731e-04  1.9664236564866466e-04  2.3733567032895440e-04  2.8595495778218971e-04  3.4393389845412093e-04  4.1294209043796199e-04  4.9491913625957190e-04  5.9211272431828276e-04  7.0712101451555413e-04  8.4293961746711630e-04  1.0030134385358518e-03  1.1912936304154238e-03  1.4122998597655037e-03  1.6711880430597687e-03  1.9738236429915602e-03  2.3268605381915448e-03  2.7378253844714223e-03  3.2152072743263193e-03  3.7685523722666430e-03  4.4085630562972697e-03  5.1472009305142752e-03  5.9977928908337549e-03  6.9751392263659624e-03  8.0956225246147529e-03  9.3773159219647118e-03  1.0840089005052327e-02  1.2505709427688338e-02  1.4397938066959607e-02  1.6542615306828656e-02  1.8967735814659159e-02  2.1703508973119612e-02  2.4782401955051995e-02  2.8239162290905617e-02  3.2110816686380626e-02  3.6436642811329280e-02  4.1258110808939721e-02  4.6618791375600863e-02  5.2564227444682018e-02  5.9141766778710622e-02  6.6400353139557514e-02  7.4390274168798745e-02  8.3162864671719766e-02  9.2770164657133697e-02  1.0326453223704225e-01  1.1469821232773642e-01  1.2712286300642550e-01  1.4058904235068811e-01  1.5514565960437016e-01  1.7083939555221775e-01  1.8771409802281946e-01  2.0581015944917794e-01  2.2516388437036444e-01  2.4580685562702373e-01  2.6776530875833737e-01  2.9105952471948288e-01  3.1570325147905276e-01  3.4170316530053446e-01  3.6905838253939521e-01  3.9776003258091563e-01  4.2779090209235193e-01  4.5912516006134663e-01  4.9172817214250447e-01  5.2555641164482803e-01  5.6055747308076065e-01  5.9667019258661314e-01  6.3382487774501861e-01  6.7194364742968882e-01  7.1094088029373659e-01  7.5072376848185784e-01  7.9119297111355047e-01  8.3224336011047428e-01  8.7376484907715457e-01  9.1564329423980728e-01  9.5776145494908327e-01  1.0000000000000000e+00  </DataArray> 
</PointData> 
</Piece>
</UnstructuredGrid>
</VTKFile>