<?xml version="1.0"?>
<VTKFile type="UnstructuredGrid"  version="0.1"  >
<UnstructuredGrid>
<Piece  NumberOfPoints="101" NumberOfCells="100">
<Points>
<DataArray  type="Float64"  NumberOfComponents="3"  format="ascii">0 0 0  0.001 0 0  0.002 0 0  0.003 0 0  0.004 0 0  0.005 0 0  0.006000000000000001 0 0  0.007000000000000001 0 0  0.008 0 0  0.009000000000000001 0 0  0.01 0 0  0.011 0 0  0.012 0 0  0.013 0 0  0.014 0 0  0.015 0 0  0.016 0 0  0.017 0 0  0.018 0 0  0.019 0 0  0.02 0 0  0.021 0 0  0.022 0 0  0.023 0 0  0.024 0 0  0.025 0 0  0.026 0 0  0.027 0 0  0.028 0 0  0.029 0 0  0.03 0 0  0.031 0 0  0.032 0 0  0.033 0 0  0.034 0 0  0.035 0 0  0.036 0 0  0.03700000000000001 0 0  0.03800000000000001 0 0  0.03900000000000001 0 0  0.04 0 0  0.04100000000000001 0 0  0.042 0 0  0.043 0 0  0.044 0 0  0.045 0 0  0.04600000000000001 0 0  0.047 0 0  0.04800000000000001 0 0  0.049 0 0  0.05 0 0  0.051 0 0  0.052 0 0  0.05300000000000001 0 0  0.05400000000000001 0 0  0.055 0 0  0.05600000000000001 0 0  0.057 0 0  0.05800000000000001 0 0  0.059 0 0  0.06 0 0  0.06100000000000001 0 0  0.062 0 0  0.063 0 0  0.064 0 0  0.065 0 0  0.066 0 0  0.067 0 0  0.068 0 0  0.06900000000000001 0 0  0.07000000000000001 0 0  0.07100000000000001 0 0  0.07200000000000001 0 0  0.07300000000000001 0 0  0.07400000000000001 0 0  0.075 0 0  0.07600000000000001 0 0  0.077 0 0  0.07800000000000001 0 0  0.079 0 0  0.08 0 0  0.081 0 0  0.08200000000000002 0 0  0.083 0 0  0.08400000000000001 0 0  0.08500000000000001 0 0  0.08599999999999999 0 0  0.08700000000000001 0 0  0.08800000000000001 0 0  0.08900000000000001 0 0  0.09 0 0  0.091 0 0  0.09200000000000001 0 0  0.09300000000000001 0 0  0.094 0 0  0.095 0 0  0.09600000000000002 0 0  0.09700000000000002 0 0  0.098 0 0  0.099 0 0  0.1 0 0  </DataArray>
</Points>
<Cells>
<DataArray  type="UInt32"  Name="connectivity"  format="ascii">0 1  1 2  2 3  3 4  4 5  5 6  6 7  7 8  8 9  9 10  10 11  11 12  12 13  13 14  14 15  15 16  16 17  17 18  18 19  19 20  20 21  21 22  22 23  23 24  24 25  25 26  26 27  27 28  28 29  29 30  30 31  31 32  32 33  33 34  34 35  35 36  36 37  37 38  38 39  39 40  40 41  41 42  42 43  43 44  44 45  45 46  46 47  47 48  48 49  49 50  50 51  51 52  52 53  53 54  54 55  55 56  56 57  57 58  58 59  59 60  60 61  61 62  62 63  63 64  64 65  65 66  66 67  67 68  68 69  69 70  70 71  71 72  72 73  73 74  74 75  75 76  76 77  77 78  78 79  79 80  80 81  81 82  82 83  83 84  84 85  85 86  86 87  87 88  88 89  89 90  90 91  91 92  92 93  93 94  94 95  95 96  96 97  97 98  98 99  99 100  </DataArray>
<DataArray  type="UInt32"  Name="offsets"  format="ascii">2 4 6 8 10 12 14 16 18 20 22 24 26 28 30 32 34 36 38 40 42 44 46 48 50 52 54 56 58 60 62 64 66 68 70 72 74 76 78 80 82 84 86 88 90 92 94 96 98 100 102 104 106 108 110 112 114 116 118 120 122 124 126 128 130 132 134 136 138 140 142 144 146 148 150 152 154 156 158 160 162 164 166 168 170 172 174 176 178 180 182 184 186 188 190 192 194 196 198 200 </DataArray>
<DataArray  type="UInt8"  Name="types"  format="ascii">3 3 3 3 3 3 3 3 3 3 3 3 3 3 3 3 3 3 3 3 3 3 3 3 3 3 3 3 3 3 3 3 3 3 3 3 3 3 3 3 3 3 3 3 3 3 3 3 3 3 3 3 3 3 3 3 3 3 3 3 3 3 3 3 3 3 3 3 3 3 3 3 3 3 3 3 3 3 3 3 3 3 3 3 3 3 3 3 3 3 3 3 3 3 3 3 3 3 3 3 </DataArray>
</Cells>
<PointData  Scalars="f_14"> 
<DataArray  type="Float64"  Name="f_14"  format="ascii">3.3623943411950885e-04  3.3980934539576461e-04  3.5057536679176569e-04  3.6870688918489683e-04  3.9448799142368583e-04  4.2832008183137153e-04  4.7072559699921131e-04  5.2235275818518132e-04  5.8398138519421845e-04  6.5652976678415612e-04  7.4106258533522865e-04  8.3879989166207674e-04  9.5112712336142011e-04  1.0796061569068320e-03  1.2259873797611316e-03  1.3922227640205064e-03  1.5804799174842245e-03  1.7931570815203283e-03  2.0328990376419203e-03  2.3026138763027012e-03  2.6054905720591334e-03  2.9450172989385483e-03  3.3250004086211788e-03  3.7495839819292795e-03  4.2232698511748832e-03  4.7509379772244873e-03  5.3378670507880678e-03  5.9897551725447652e-03  6.7127404514123181e-03  7.5134213447056479e-03  8.3988765482860828e-03  9.3766842292706890e-03  1.0454940378663610e-02  1.1642276046619687e-02  1.2947873209201394e-02  1.4381479002705595e-02  1.5953418050190196e-02  1.7674602595005334e-02  1.9556540148218404e-02  2.1611338351107970e-02  2.3851706750678433e-02  2.6290955185697944e-02  2.8942988483359036e-02  3.1822297172562804e-02  3.4943943929264719e-02  3.8323545482507215e-02  4.1977249726874090e-02  4.5921707808273773e-02  5.0174040975294855e-02  5.4751802017917732e-02  5.9672931149120124e-02  6.4955706222808593e-02  7.0618687223437740e-02  7.6680655008448270e-02  8.3160544334027073e-02  9.0077371247347035e-02  9.7450154984004875e-02  1.0529783456739113e-01  1.1363918036669626e-01  1.2249270093159448e-01  1.3187654548374647e-01  1.4180840250741950e-01  1.5230539494304002e-01  1.6338397254759360e-01  1.7505980204368293e-01  1.8734765573395756e-01  2.0026129930870112e-01  2.1381337962081454e-01  2.2801531324346763e-01  2.4287717666053885e-01  2.5840759896790932e-01  2.7461365798404791e-01  2.9150078068052054e-01  3.0907264884655578e-01  3.2733111089616024e-01  3.4627610071117965e-01  3.6590556438890659e-01  3.8621539572824010e-01  4.0719938124404065e-01  4.2884915544529018e-01  4.5115416704931399e-01  4.7410165673196375e-01  4.9767664693292357e-01  5.2186194414677856e-01  5.4663815403501126e-01  5.7198370959252509e-01  5.9787491249568003e-01  6.2428598764822774e-01  6.5118915082811890e-01  6.7855468922323547e-01  7.0635105452883473e-01  7.3454496816533577e-01  7.6310153806325531e-01  7.9198438635400270e-01  8.2115578720212046e-01  8.5057681391768980e-01  8.8020749439819002e-01  9.1000697386821594e-01  9.3993368381412390e-01  9.6994551594978873e-01  1.0000000000000000e+00  </DataArray> 
</PointData> 
</Piece>
</UnstructuredGrid>
</VTKFile>