<?xml version="1.0"?>
<VTKFile type="UnstructuredGrid"  version="0.1"  >
<UnstructuredGrid>
<Piece  NumberOfPoints="101" NumberOfCells="100">
<Points>
<DataArray  type="Float64"  NumberOfComponents="3"  format="ascii">0 0 0  0.001 0 0  0.002 0 0  0.003 0 0  0.004 0 0  0.005 0 0  0.006000000000000001 0 0  0.007000000000000001 0 0  0.008 0 0  0.009000000000000001 0 0  0.01 0 0  0.011 0 0  0.012 0 0  0.013 0 0  0.014 0 0  0.015 0 0  0.016 0 0  0.017 0 0  0.018 0 0  0.019 0 0  0.02 0 0  0.021 0 0  0.022 0 0  0.023 0 0  0.024 0 0  0.025 0 0  0.026 0 0  0.027 0 0  0.028 0 0  0.029 0 0  0.03 0 0  0.031 0 0  0.032 0 0  0.033 0 0  0.034 0 0  0.035 0 0  0.036 0 0  0.03700000000000001 0 0  0.03800000000000001 0 0  0.03900000000000001 0 0  0.04 0 0  0.04100000000000001 0 0  0.042 0 0  0.043 0 0  0.044 0 0  0.045 0 0  0.04600000000000001 0 0  0.047 0 0  0.04800000000000001 0 0  0.049 0 0  0.05 0 0  0.051 0 0  0.052 0 0  0.05300000000000001 0 0  0.05400000000000001 0 0  0.055 0 0  0.05600000000000001 0 0  0.057 0 0  0.05800000000000001 0 0  0.059 0 0  0.06 0 0  0.06100000000000001 0 0  0.062 0 0  0.063 0 0  0.064 0 0  0.065 0 0  0.066 0 0  0.067 0 0  0.068 0 0  0.06900000000000001 0 0  0.07000000000000001 0 0  0.07100000000000001 0 0  0.07200000000000001 0 0  0.07300000000000001 0 0  0.07400000000000001 0 0  0.075 0 0  0.07600000000000001 0 0  0.077 0 0  0.07800000000000001 0 0  0.079 0 0  0.08 0 0  0.081 0 0  0.08200000000000002 0 0  0.083 0 0  0.08400000000000001 0 0  0.08500000000000001 0 0  0.08599999999999999 0 0  0.08700000000000001 0 0  0.08800000000000001 0 0  0.08900000000000001 0 0  0.09 0 0  0.091 0 0  0.09200000000000001 0 0  0.09300000000000001 0 0  0.094 0 0  0.095 0 0  0.09600000000000002 0 0  0.09700000000000002 0 0  0.098 0 0  0.099 0 0  0.1 0 0  </DataArray>
</Points>
<Cells>
<DataArray  type="UInt32"  Name="connectivity"  format="ascii">0 1  1 2  2 3  3 4  4 5  5 6  6 7  7 8  8 9  9 10  10 11  11 12  12 13  13 14  14 15  15 16  16 17  17 18  18 19  19 20  20 21  21 22  22 23  23 24  24 25  25 26  26 27  27 28  28 29  29 30  30 31  31 32  32 33  33 34  34 35  35 36  36 37  37 38  38 39  39 40  40 41  41 42  42 43  43 44  44 45  45 46  46 47  47 48  48 49  49 50  50 51  51 52  52 53  53 54  54 55  55 56  56 57  57 58  58 59  59 60  60 61  61 62  62 63  63 64  64 65  65 66  66 67  67 68  68 69  69 70  70 71  71 72  72 73  73 74  74 75  75 76  76 77  77 78  78 79  79 80  80 81  81 82  82 83  83 84  84 85  85 86  86 87  87 88  88 89  89 90  90 91  91 92  92 93  93 94  94 95  95 96  96 97  97 98  98 99  99 100  </DataArray>
<DataArray  type="UInt32"  Name="offsets"  format="ascii">2 4 6 8 10 12 14 16 18 20 22 24 26 28 30 32 34 36 38 40 42 44 46 48 50 52 54 56 58 60 62 64 66 68 70 72 74 76 78 80 82 84 86 88 90 92 94 96 98 100 102 104 106 108 110 112 114 116 118 120 122 124 126 128 130 132 134 136 138 140 142 144 146 148 150 152 154 156 158 160 162 164 166 168 170 172 174 176 178 180 182 184 186 188 190 192 194 196 198 200 </DataArray>
<DataArray  type="UInt8"  Name="types"  format="ascii">3 3 3 3 3 3 3 3 3 3 3 3 3 3 3 3 3 3 3 3 3 3 3 3 3 3 3 3 3 3 3 3 3 3 3 3 3 3 3 3 3 3 3 3 3 3 3 3 3 3 3 3 3 3 3 3 3 3 3 3 3 3 3 3 3 3 3 3 3 3 3 3 3 3 3 3 3 3 3 3 3 3 3 3 3 3 3 3 3 3 3 3 3 3 3 3 3 3 3 3 </DataArray>
</Cells>
<PointData  Scalars="f_14"> 
<DataArray  type="Float64"  Name="f_14"  format="ascii">1.2972670499679662e-14  1.5254526563191870e-14  2.2855410463201535e-14  3.8274933272820336e-14  6.6524977318445499e-14  1.1665053206043583e-13  2.0443046066582048e-13  3.5700349751803846e-13  6.2067083373086026e-13  1.0739411709945136e-12  1.8491958536233377e-12  3.1684561656586092e-12  5.4020930600975095e-12  9.1646462333407077e-12  1.5470315564729491e-11  2.5983837625296727e-11  4.3422920817550546e-11  7.2200040389277029e-11  1.1943995818107275e-10  1.9658339807115404e-10  3.2189949861471198e-10  5.2439842961941555e-10  8.4988765188909112e-10  1.3702891902394799e-09  2.1978858358099586e-09  3.5069689402016784e-09  5.5665280578714445e-09  8.7893039684974876e-09  1.3804929002122316e-08  2.1568284600607663e-08  3.3518996547919861e-08  5.1814671398835299e-08  7.9669723786693522e-08  1.2184432803600243e-07  1.8534527581676577e-07  2.8042376811303748e-07  4.2198621335712874e-07  6.3157516781753411e-07  9.4013134358112028e-07  1.3918173539954521e-06  2.0492733469427961e-06  3.0007882150116720e-06  4.3700124735613113e-06  6.3290153228593930e-06  9.1157041544943431e-06  1.3056884921083954e-05  1.8598550782856437e-05  2.6345347383040437e-05  3.7111576964588144e-05  5.1986568169994864e-05  7.2417747299167326e-05  1.0031528793512530e-04  1.3818277002699243e-04  1.8927881911439255e-04  2.5781518399023743e-04  3.4919709856109785e-04  4.7031200152016607e-04  6.2987268516175542e-04  8.3882063180213383e-04  1.1107945848910473e-03  1.4626682004031848e-03  1.9151588426737794e-03  2.4935071465703230e-03  3.2282238014624113e-03  4.1558960862215352e-03  5.3200420014383439e-03  6.7719944579793436e-03  8.5717920030215639e-03  1.0789046177929544e-02  1.3503749063607686e-02  1.6806978211141427e-02  2.0801450383250479e-02  2.5601870810706841e-02  3.1335021505185780e-02  3.8139531090131885e-02  4.6165270121350743e-02  5.5572320420245562e-02  6.6529474886553197e-02  7.9212235801874142e-02  9.3800294801898956e-02  1.1047449628374831e-01  1.2941330757738603e-01  1.5078884304027548e-01  1.7476251437390941e-01  2.0148040472615228e-01  2.3106848817375930e-01  2.6362783750526780e-01  2.9922998035238113e-01  3.3791257522973833e-01  3.7967558370015247e-01  4.2447811172976468e-01  4.7223608175697068e-01  5.2282087694399670e-01  5.7605907088510599e-01  6.3173332060165610e-01  6.8958445934899160e-01  7.4931478041878219e-01  8.1059245591229623e-01  8.7305698777434670e-01  9.3632554467660423e-01  1.0000000000000000e+00  </DataArray> 
</PointData> 
</Piece>
</UnstructuredGrid>
</VTKFile>