<?xml version="1.0"?>
<VTKFile type="UnstructuredGrid"  version="0.1"  >
<UnstructuredGrid>
<Piece  NumberOfPoints="101" NumberOfCells="100">
<Points>
<DataArray  type="Float64"  NumberOfComponents="3"  format="ascii">0 0 0  0.001 0 0  0.002 0 0  0.003 0 0  0.004 0 0  0.005 0 0  0.006000000000000001 0 0  0.007000000000000001 0 0  0.008 0 0  0.009000000000000001 0 0  0.01 0 0  0.011 0 0  0.012 0 0  0.013 0 0  0.014 0 0  0.015 0 0  0.016 0 0  0.017 0 0  0.018 0 0  0.019 0 0  0.02 0 0  0.021 0 0  0.022 0 0  0.023 0 0  0.024 0 0  0.025 0 0  0.026 0 0  0.027 0 0  0.028 0 0  0.029 0 0  0.03 0 0  0.031 0 0  0.032 0 0  0.033 0 0  0.034 0 0  0.035 0 0  0.036 0 0  0.03700000000000001 0 0  0.03800000000000001 0 0  0.03900000000000001 0 0  0.04 0 0  0.04100000000000001 0 0  0.042 0 0  0.043 0 0  0.044 0 0  0.045 0 0  0.04600000000000001 0 0  0.047 0 0  0.04800000000000001 0 0  0.049 0 0  0.05 0 0  0.051 0 0  0.052 0 0  0.05300000000000001 0 0  0.05400000000000001 0 0  0.055 0 0  0.05600000000000001 0 0  0.057 0 0  0.05800000000000001 0 0  0.059 0 0  0.06 0 0  0.06100000000000001 0 0  0.062 0 0  0.063 0 0  0.064 0 0  0.065 0 0  0.066 0 0  0.067 0 0  0.068 0 0  0.06900000000000001 0 0  0.07000000000000001 0 0  0.07100000000000001 0 0  0.07200000000000001 0 0  0.07300000000000001 0 0  0.07400000000000001 0 0  0.075 0 0  0.07600000000000001 0 0  0.077 0 0  0.07800000000000001 0 0  0.079 0 0  0.08 0 0  0.081 0 0  0.08200000000000002 0 0  0.083 0 0  0.08400000000000001 0 0  0.08500000000000001 0 0  0.08599999999999999 0 0  0.08700000000000001 0 0  0.08800000000000001 0 0  0.08900000000000001 0 0  0.09 0 0  0.091 0 0  0.09200000000000001 0 0  0.09300000000000001 0 0  0.094 0 0  0.095 0 0  0.09600000000000002 0 0  0.09700000000000002 0 0  0.098 0 0  0.099 0 0  0.1 0 0  </DataArray>
</Points>
<Cells>
<DataArray  type="UInt32"  Name="connectivity"  format="ascii">0 1  1 2  2 3  3 4  4 5  5 6  6 7  7 8  8 9  9 10  10 11  11 12  12 13  13 14  14 15  15 16  16 17  17 18  18 19  19 20  20 21  21 22  22 23  23 24  24 25  25 26  26 27  27 28  28 29  29 30  30 31  31 32  32 33  33 34  34 35  35 36  36 37  37 38  38 39  39 40  40 41  41 42  42 43  43 44  44 45  45 46  46 47  47 48  48 49  49 50  50 51  51 52  52 53  53 54  54 55  55 56  56 57  57 58  58 59  59 60  60 61  61 62  62 63  63 64  64 65  65 66  66 67  67 68  68 69  69 70  70 71  71 72  72 73  73 74  74 75  75 76  76 77  77 78  78 79  79 80  80 81  81 82  82 83  83 84  84 85  85 86  86 87  87 88  88 89  89 90  90 91  91 92  92 93  93 94  94 95  95 96  96 97  97 98  98 99  99 100  </DataArray>
<DataArray  type="UInt32"  Name="offsets"  format="ascii">2 4 6 8 10 12 14 16 18 20 22 24 26 28 30 32 34 36 38 40 42 44 46 48 50 52 54 56 58 60 62 64 66 68 70 72 74 76 78 80 82 84 86 88 90 92 94 96 98 100 102 104 106 108 110 112 114 116 118 120 122 124 126 128 130 132 134 136 138 140 142 144 146 148 150 152 154 156 158 160 162 164 166 168 170 172 174 176 178 180 182 184 186 188 190 192 194 196 198 200 </DataArray>
<DataArray  type="UInt8"  Name="types"  format="ascii">3 3 3 3 3 3 3 3 3 3 3 3 3 3 3 3 3 3 3 3 3 3 3 3 3 3 3 3 3 3 3 3 3 3 3 3 3 3 3 3 3 3 3 3 3 3 3 3 3 3 3 3 3 3 3 3 3 3 3 3 3 3 3 3 3 3 3 3 3 3 3 3 3 3 3 3 3 3 3 3 3 3 3 3 3 3 3 3 3 3 3 3 3 3 3 3 3 3 3 3 </DataArray>
</Cells>
<PointData  Scalars="f_14"> 
<DataArray  type="Float64"  Name="f_14"  format="ascii">4.8900493900486374e-08  5.1296867152924149e-08  5.8692585194489788e-08  7.1722640859837416e-08  9.1496921733550219e-08  1.1968077073000734e-07  1.5861433620859163e-07  2.1147761315809852e-07  2.8251053735759618e-07  3.7730033528505932e-07  5.0315165371591401e-07  6.6955890278564742e-07  8.8880486260728083e-07  1.1767150541809735e-06  1.5536037982445643e-06  2.0454554283755946e-06  2.6853929428119651e-06  3.5154966349159233e-06  4.5890470995560851e-06  5.9732806347671068e-06  7.7527605999877637e-06  1.0033485893788660e-05  1.2947877490429477e-05  1.6660806005066265e-05  2.1376847572054733e-05  2.7348981885314198e-05  3.4888974948415079e-05  4.4379719698919170e-05  5.6289839869983560e-05  7.1190895754049495e-05  8.9777564297080300e-05  1.1289119935161096e-04  1.4154720992357010e-04  1.7696672361198516e-04  2.2061302768019506e-04  2.7423329959078802e-04  3.3990615042454766e-04  4.2009550619866490e-04  5.1771134130734319e-04  6.3617775256286362e-04  7.7950881892875320e-04  9.5239262826324789e-04  1.1602837655100549e-03  1.4095044441886626e-03  1.7073543223933975e-03  2.0622288738291012e-03  2.4837459822321076e-03  2.9828801930666042e-03  3.5721037897097222e-03  4.2655335635098960e-03  5.0790818203563350e-03  6.0306098142754372e-03  7.1400814260537768e-03  8.4297145184831553e-03  9.9241270076201645e-03  1.1650474301121632e-02  1.3638574381455684e-02  1.5921016466196182e-02  1.8533248873495115e-02  2.1513641472930452e-02  2.4903517925574461e-02  2.8747152827788478e-02  3.3091728886062224e-02  3.7987249379398520e-02  4.3486401424006595e-02  4.9644365952971690e-02  5.6518570868863360e-02  6.4168384524264044e-02  7.2654747534249456e-02  8.2039741921716244e-02  9.2386097731971012e-02  1.0375663851279594e-01  1.1621366842057616e-01  1.2981830515703108e-01  1.4462976443464140e-01  1.6070460317746985e-01  1.7809593014935932e-01  1.9685259412210088e-01  2.1701836100891969e-01  2.3863109254964054e-01  2.6172194010020883e-01  2.8631456780994513e-01  3.1242441992808656e-01  3.4005804713495080e-01  3.6921250661746635e-01  3.9987485008666690e-01  4.3202171305809239e-01  4.6561901748664075e-01  5.0062179827757791e-01  5.3697416230799933e-01  5.7460938642123216e-01  6.1345015844369022e-01  6.5340896267144377e-01  6.9438860854194095e-01  7.3628289841046290e-01  7.7897742756070187e-01  8.2235050686600331e-01  8.6627419595370247e-01  9.1061543237847120e-01  9.5523724024571932e-01  1.0000000000000000e+00  </DataArray> 
</PointData> 
</Piece>
</UnstructuredGrid>
</VTKFile>