<?xml version="1.0"?>
<VTKFile type="UnstructuredGrid"  version="0.1"  >
<UnstructuredGrid>
<Piece  NumberOfPoints="101" NumberOfCells="100">
<Points>
<DataArray  type="Float64"  NumberOfComponents="3"  format="ascii">0 0 0  0.001 0 0  0.002 0 0  0.003 0 0  0.004 0 0  0.005 0 0  0.006000000000000001 0 0  0.007000000000000001 0 0  0.008 0 0  0.009000000000000001 0 0  0.01 0 0  0.011 0 0  0.012 0 0  0.013 0 0  0.014 0 0  0.015 0 0  0.016 0 0  0.017 0 0  0.018 0 0  0.019 0 0  0.02 0 0  0.021 0 0  0.022 0 0  0.023 0 0  0.024 0 0  0.025 0 0  0.026 0 0  0.027 0 0  0.028 0 0  0.029 0 0  0.03 0 0  0.031 0 0  0.032 0 0  0.033 0 0  0.034 0 0  0.035 0 0  0.036 0 0  0.03700000000000001 0 0  0.03800000000000001 0 0  0.03900000000000001 0 0  0.04 0 0  0.04100000000000001 0 0  0.042 0 0  0.043 0 0  0.044 0 0  0.045 0 0  0.04600000000000001 0 0  0.047 0 0  0.04800000000000001 0 0  0.049 0 0  0.05 0 0  0.051 0 0  0.052 0 0  0.05300000000000001 0 0  0.05400000000000001 0 0  0.055 0 0  0.05600000000000001 0 0  0.057 0 0  0.05800000000000001 0 0  0.059 0 0  0.06 0 0  0.06100000000000001 0 0  0.062 0 0  0.063 0 0  0.064 0 0  0.065 0 0  0.066 0 0  0.067 0 0  0.068 0 0  0.06900000000000001 0 0  0.07000000000000001 0 0  0.07100000000000001 0 0  0.07200000000000001 0 0  0.07300000000000001 0 0  0.07400000000000001 0 0  0.075 0 0  0.07600000000000001 0 0  0.077 0 0  0.07800000000000001 0 0  0.079 0 0  0.08 0 0  0.081 0 0  0.08200000000000002 0 0  0.083 0 0  0.08400000000000001 0 0  0.08500000000000001 0 0  0.08599999999999999 0 0  0.08700000000000001 0 0  0.08800000000000001 0 0  0.08900000000000001 0 0  0.09 0 0  0.091 0 0  0.09200000000000001 0 0  0.09300000000000001 0 0  0.094 0 0  0.095 0 0  0.09600000000000002 0 0  0.09700000000000002 0 0  0.098 0 0  0.099 0 0  0.1 0 0  </DataArray>
</Points>
<Cells>
<DataArray  type="UInt32"  Name="connectivity"  format="ascii">0 1  1 2  2 3  3 4  4 5  5 6  6 7  7 8  8 9  9 10  10 11  11 12  12 13  13 14  14 15  15 16  16 17  17 18  18 19  19 20  20 21  21 22  22 23  23 24  24 25  25 26  26 27  27 28  28 29  29 30  30 31  31 32  32 33  33 34  34 35  35 36  36 37  37 38  38 39  39 40  40 41  41 42  42 43  43 44  44 45  45 46  46 47  47 48  48 49  49 50  50 51  51 52  52 53  53 54  54 55  55 56  56 57  57 58  58 59  59 60  60 61  61 62  62 63  63 64  64 65  65 66  66 67  67 68  68 69  69 70  70 71  71 72  72 73  73 74  74 75  75 76  76 77  77 78  78 79  79 80  80 81  81 82  82 83  83 84  84 85  85 86  86 87  87 88  88 89  89 90  90 91  91 92  92 93  93 94  94 95  95 96  96 97  97 98  98 99  99 100  </DataArray>
<DataArray  type="UInt32"  Name="offsets"  format="ascii">2 4 6 8 10 12 14 16 18 20 22 24 26 28 30 32 34 36 38 40 42 44 46 48 50 52 54 56 58 60 62 64 66 68 70 72 74 76 78 80 82 84 86 88 90 92 94 96 98 100 102 104 106 108 110 112 114 116 118 120 122 124 126 128 130 132 134 136 138 140 142 144 146 148 150 152 154 156 158 160 162 164 166 168 170 172 174 176 178 180 182 184 186 188 190 192 194 196 198 200 </DataArray>
<DataArray  type="UInt8"  Name="types"  format="ascii">3 3 3 3 3 3 3 3 3 3 3 3 3 3 3 3 3 3 3 3 3 3 3 3 3 3 3 3 3 3 3 3 3 3 3 3 3 3 3 3 3 3 3 3 3 3 3 3 3 3 3 3 3 3 3 3 3 3 3 3 3 3 3 3 3 3 3 3 3 3 3 3 3 3 3 3 3 3 3 3 3 3 3 3 3 3 3 3 3 3 3 3 3 3 3 3 3 3 3 3 </DataArray>
</Cells>
<PointData  Scalars="f_14"> 
<DataArray  type="Float64"  Name="f_14"  format="ascii">1.2100446477360353e-03  1.2190149939631976e-03  1.2460183626445515e-03  1.2913321875066362e-03  1.3554203350429617e-03  1.4389353124284424e-03  1.5427213435171741e-03  1.6678182976944623e-03  1.8154664517966851e-03  1.9871120606065806e-03  2.1844137065504653e-03  2.4092493941449992e-03  2.6637243494464645e-03  2.9501794792320640e-03  3.2712004388833413e-03  3.6296272519454470e-03  4.0285644181084134e-03  4.4713914399108845e-03  4.9617736918232264e-03  5.5036735485541471e-03  6.1013616824791223e-03  6.7594284330547705e-03  7.4827951440135636e-03  8.2767253570890306e-03  9.1468357440716262e-03  1.0099106652216656e-02  1.1139892131501676e-02  1.2275929306052544e-02  1.3514346946321289e-02  1.4862673093407356e-02  1.6328841582372522e-02  1.7921197307618968e-02  1.9648500070490370e-02  2.1519926847330874e-02  2.3545072315406666e-02  2.5733947474470501e-02  2.8096976203434928e-02  3.0644989594716530e-02  3.3389217913412594e-02  3.6341280034657884e-02  3.9513170220354193e-02  4.2917242106030151e-02  4.6566189779916861e-02  5.0473025849449044e-02  5.4651056405327310e-02  5.9113852810003156e-02  6.3875220255942736e-02  6.8949163059234778e-02  7.4349846675970221e-02  8.0091556452222823e-02  8.6188653143301555e-02  9.2655525264061886e-02  9.9506538359305813e-02  1.0675598131146263e-01  1.1441800983162194e-01  1.2250658730934622e-01  1.3103542322627160e-01  1.4001790936803715e-01  1.4946705409828628e-01  1.5939541498704088e-01  1.6981503011337681e-01  1.8073734838868327e-01  1.9217315927156908e-01  2.0413252226836293e-01  2.1662469663381395e-01  2.2965807170475430e-01  2.4324009831481511e-01  2.5737722175053357e-01  2.7207481671809047e-01  2.8733712479524121e-01  3.0316719484455074e-01  3.1956682686164328e-01  3.3653651972569587e-01  3.5407542330875030e-01  3.7218129538552885e-01  3.9085046376631866e-01  4.1007779405215988e-01  4.2985666338412132e-01  4.5017894052702079e-01  4.7103497259267019e-01  4.9241357866890761e-01  5.1430205057848133e-01  5.3668616094669364e-01  5.5955017870885426e-01  5.8287689213849547e-01  6.0664763942533517e-01  6.3084234677863926e-01  6.5543957397736519e-01  6.8041656723379407e-01  7.0574931918279893e-01  7.3141263575491489e-01  7.5738020963858643e-01  7.8362469998580220e-01  8.1011781796636073e-01  8.3683041772969236e-01  8.6373259228999244e-01  8.9079377381082236e-01  9.1798283772974187e-01  9.4526821013228501e-01  9.7261797775804082e-01  1.0000000000000000e+00  </DataArray> 
</PointData> 
</Piece>
</UnstructuredGrid>
</VTKFile>