<?xml version="1.0"?>
<VTKFile type="UnstructuredGrid"  version="0.1"  >
<UnstructuredGrid>
<Piece  NumberOfPoints="101" NumberOfCells="100">
<Points>
<DataArray  type="Float64"  NumberOfComponents="3"  format="ascii">0 0 0  0.001 0 0  0.002 0 0  0.003 0 0  0.004 0 0  0.005 0 0  0.006000000000000001 0 0  0.007000000000000001 0 0  0.008 0 0  0.009000000000000001 0 0  0.01 0 0  0.011 0 0  0.012 0 0  0.013 0 0  0.014 0 0  0.015 0 0  0.016 0 0  0.017 0 0  0.018 0 0  0.019 0 0  0.02 0 0  0.021 0 0  0.022 0 0  0.023 0 0  0.024 0 0  0.025 0 0  0.026 0 0  0.027 0 0  0.028 0 0  0.029 0 0  0.03 0 0  0.031 0 0  0.032 0 0  0.033 0 0  0.034 0 0  0.035 0 0  0.036 0 0  0.03700000000000001 0 0  0.03800000000000001 0 0  0.03900000000000001 0 0  0.04 0 0  0.04100000000000001 0 0  0.042 0 0  0.043 0 0  0.044 0 0  0.045 0 0  0.04600000000000001 0 0  0.047 0 0  0.04800000000000001 0 0  0.049 0 0  0.05 0 0  0.051 0 0  0.052 0 0  0.05300000000000001 0 0  0.05400000000000001 0 0  0.055 0 0  0.05600000000000001 0 0  0.057 0 0  0.05800000000000001 0 0  0.059 0 0  0.06 0 0  0.06100000000000001 0 0  0.062 0 0  0.063 0 0  0.064 0 0  0.065 0 0  0.066 0 0  0.067 0 0  0.068 0 0  0.06900000000000001 0 0  0.07000000000000001 0 0  0.07100000000000001 0 0  0.07200000000000001 0 0  0.07300000000000001 0 0  0.07400000000000001 0 0  0.075 0 0  0.07600000000000001 0 0  0.077 0 0  0.07800000000000001 0 0  0.079 0 0  0.08 0 0  0.081 0 0  0.08200000000000002 0 0  0.083 0 0  0.08400000000000001 0 0  0.08500000000000001 0 0  0.08599999999999999 0 0  0.08700000000000001 0 0  0.08800000000000001 0 0  0.08900000000000001 0 0  0.09 0 0  0.091 0 0  0.09200000000000001 0 0  0.09300000000000001 0 0  0.094 0 0  0.095 0 0  0.09600000000000002 0 0  0.09700000000000002 0 0  0.098 0 0  0.099 0 0  0.1 0 0  </DataArray>
</Points>
<Cells>
<DataArray  type="UInt32"  Name="connectivity"  format="ascii">0 1  1 2  2 3  3 4  4 5  5 6  6 7  7 8  8 9  9 10  10 11  11 12  12 13  13 14  14 15  15 16  16 17  17 18  18 19  19 20  20 21  21 22  22 23  23 24  24 25  25 26  26 27  27 28  28 29  29 30  30 31  31 32  32 33  33 34  34 35  35 36  36 37  37 38  38 39  39 40  40 41  41 42  42 43  43 44  44 45  45 46  46 47  47 48  48 49  49 50  50 51  51 52  52 53  53 54  54 55  55 56  56 57  57 58  58 59  59 60  60 61  61 62  62 63  63 64  64 65  65 66  66 67  67 68  68 69  69 70  70 71  71 72  72 73  73 74  74 75  75 76  76 77  77 78  78 79  79 80  80 81  81 82  82 83  83 84  84 85  85 86  86 87  87 88  88 89  89 90  90 91  91 92  92 93  93 94  94 95  95 96  96 97  97 98  98 99  99 100  </DataArray>
<DataArray  type="UInt32"  Name="offsets"  format="ascii">2 4 6 8 10 12 14 16 18 20 22 24 26 28 30 32 34 36 38 40 42 44 46 48 50 52 54 56 58 60 62 64 66 68 70 72 74 76 78 80 82 84 86 88 90 92 94 96 98 100 102 104 106 108 110 112 114 116 118 120 122 124 126 128 130 132 134 136 138 140 142 144 146 148 150 152 154 156 158 160 162 164 166 168 170 172 174 176 178 180 182 184 186 188 190 192 194 196 198 200 </DataArray>
<DataArray  type="UInt8"  Name="types"  format="ascii">3 3 3 3 3 3 3 3 3 3 3 3 3 3 3 3 3 3 3 3 3 3 3 3 3 3 3 3 3 3 3 3 3 3 3 3 3 3 3 3 3 3 3 3 3 3 3 3 3 3 3 3 3 3 3 3 3 3 3 3 3 3 3 3 3 3 3 3 3 3 3 3 3 3 3 3 3 3 3 3 3 3 3 3 3 3 3 3 3 3 3 3 3 3 3 3 3 3 3 3 </DataArray>
</Cells>
<PointData  Scalars="f_14"> 
<DataArray  type="Float64"  Name="f_14"  format="ascii">1.7286383844825245e-08  1.8243295523348341e-08  2.1208004703241701e-08  2.6470407241227614e-08  3.4540801057541526e-08  4.6192583667968685e-08  6.2526118348994387e-08  8.5058116570140474e-08  1.1584250435529053e-07  1.5763065981445778e-07  2.1408121267077354e-07  2.9003237922596040e-07  3.9185317519160540e-07  5.2789392533103937e-07  7.0906140918281163e-07  9.4954989854231753e-07  1.2677664234945068e-06  1.6874970342819021e-06  2.2393708056343938e-06  2.9626900703244706e-06  3.9077090903355746e-06  5.1384593012085451e-06  6.7362376179896466e-06  8.8038952763939168e-06  1.1471088481452594e-05  1.4900678888876505e-05  1.9296501734506162e-05  2.4912752258739836e-05  3.2065276847626874e-05  4.1145093803525697e-05  5.2634509481413375e-05  6.7126238109436269e-05  8.5345977161682370e-05  1.0817893362394822e-04  1.3670083856532367e-04  1.7221402646893407e-04  2.1628918982632725e-04  2.7081344626466954e-04  3.3804537231626141e-04  4.2067766188944624e-04  5.2190805529240777e-04  6.4551915277850556e-04  7.9596767132380673e-04  9.7848362092728945e-04  1.1991797633871617e-03  1.4651715686779202e-03  1.7847076985085448e-03  2.1673108207073662e-03  2.6239282898448614e-03  3.1670919180607983e-03  3.8110857057383108e-03  4.5721200062763577e-03  5.4685101662813795e-03  6.5208572174749466e-03  7.7522277070371853e-03  9.1883292487255890e-03  1.0857677869940520e-02  1.2791752734201594e-02  1.5025133350617474e-02  1.7595613960119032e-02  2.0544289432273346e-02  2.3915606737262868e-02  2.7757375896468071e-02  3.2120734283195861e-02  3.7060058262627371e-02  4.2632816445337202e-02  4.8899359297278101e-02  5.5922640512712583e-02  6.3767866422297162e-02  7.2502070777913541e-02  8.2193613524076059e-02  9.2911603621030306e-02  1.0472524760778938e-01  1.1770312735751137e-01  1.3191241234845785e-01  1.4741801370978017e-01  1.6428168925460146e-01  1.8256111062989844e-01  2.0230890553608910e-01  2.2357168963900428e-01  2.4638910425264549e-01  2.7079287705367677e-01  2.9680592394276967e-01  3.2444151064422622e-01  3.5370249269257303e-01  3.8458065206188030e-01  4.1705614783136469e-01  4.5109709694363181e-01  4.8665929930851826e-01  5.2368611925978947e-01  5.6210853272273320e-01  6.0184534645150056e-01  6.4280359241255547e-01  6.8487909690336246e-01  7.2795722039133581e-01  7.7191376043188331e-01  8.1661600647464128e-01  8.6192393199282769e-01  9.0769150626826400e-01  9.5376810542417045e-01  1.0000000000000000e+00  </DataArray> 
</PointData> 
</Piece>
</UnstructuredGrid>
</VTKFile>