<?xml version="1.0"?>
<VTKFile type="UnstructuredGrid"  version="0.1"  >
<UnstructuredGrid>
<Piece  NumberOfPoints="101" NumberOfCells="100">
<Points>
<DataArray  type="Float64"  NumberOfComponents="3"  format="ascii">0 0 0  0.001 0 0  0.002 0 0  0.003 0 0  0.004 0 0  0.005 0 0  0.006000000000000001 0 0  0.007000000000000001 0 0  0.008 0 0  0.009000000000000001 0 0  0.01 0 0  0.011 0 0  0.012 0 0  0.013 0 0  0.014 0 0  0.015 0 0  0.016 0 0  0.017 0 0  0.018 0 0  0.019 0 0  0.02 0 0  0.021 0 0  0.022 0 0  0.023 0 0  0.024 0 0  0.025 0 0  0.026 0 0  0.027 0 0  0.028 0 0  0.029 0 0  0.03 0 0  0.031 0 0  0.032 0 0  0.033 0 0  0.034 0 0  0.035 0 0  0.036 0 0  0.03700000000000001 0 0  0.03800000000000001 0 0  0.03900000000000001 0 0  0.04 0 0  0.04100000000000001 0 0  0.042 0 0  0.043 0 0  0.044 0 0  0.045 0 0  0.04600000000000001 0 0  0.047 0 0  0.04800000000000001 0 0  0.049 0 0  0.05 0 0  0.051 0 0  0.052 0 0  0.05300000000000001 0 0  0.05400000000000001 0 0  0.055 0 0  0.05600000000000001 0 0  0.057 0 0  0.05800000000000001 0 0  0.059 0 0  0.06 0 0  0.06100000000000001 0 0  0.062 0 0  0.063 0 0  0.064 0 0  0.065 0 0  0.066 0 0  0.067 0 0  0.068 0 0  0.06900000000000001 0 0  0.07000000000000001 0 0  0.07100000000000001 0 0  0.07200000000000001 0 0  0.07300000000000001 0 0  0.07400000000000001 0 0  0.075 0 0  0.07600000000000001 0 0  0.077 0 0  0.07800000000000001 0 0  0.079 0 0  0.08 0 0  0.081 0 0  0.08200000000000002 0 0  0.083 0 0  0.08400000000000001 0 0  0.08500000000000001 0 0  0.08599999999999999 0 0  0.08700000000000001 0 0  0.08800000000000001 0 0  0.08900000000000001 0 0  0.09 0 0  0.091 0 0  0.09200000000000001 0 0  0.09300000000000001 0 0  0.094 0 0  0.095 0 0  0.09600000000000002 0 0  0.09700000000000002 0 0  0.098 0 0  0.099 0 0  0.1 0 0  </DataArray>
</Points>
<Cells>
<DataArray  type="UInt32"  Name="connectivity"  format="ascii">0 1  1 2  2 3  3 4  4 5  5 6  6 7  7 8  8 9  9 10  10 11  11 12  12 13  13 14  14 15  15 16  16 17  17 18  18 19  19 20  20 21  21 22  22 23  23 24  24 25  25 26  26 27  27 28  28 29  29 30  30 31  31 32  32 33  33 34  34 35  35 36  36 37  37 38  38 39  39 40  40 41  41 42  42 43  43 44  44 45  45 46  46 47  47 48  48 49  49 50  50 51  51 52  52 53  53 54  54 55  55 56  56 57  57 58  58 59  59 60  60 61  61 62  62 63  63 64  64 65  65 66  66 67  67 68  68 69  69 70  70 71  71 72  72 73  73 74  74 75  75 76  76 77  77 78  78 79  79 80  80 81  81 82  82 83  83 84  84 85  85 86  86 87  87 88  88 89  89 90  90 91  91 92  92 93  93 94  94 95  95 96  96 97  97 98  98 99  99 100  </DataArray>
<DataArray  type="UInt32"  Name="offsets"  format="ascii">2 4 6 8 10 12 14 16 18 20 22 24 26 28 30 32 34 36 38 40 42 44 46 48 50 52 54 56 58 60 62 64 66 68 70 72 74 76 78 80 82 84 86 88 90 92 94 96 98 100 102 104 106 108 110 112 114 116 118 120 122 124 126 128 130 132 134 136 138 140 142 144 146 148 150 152 154 156 158 160 162 164 166 168 170 172 174 176 178 180 182 184 186 188 190 192 194 196 198 200 </DataArray>
<DataArray  type="UInt8"  Name="types"  format="ascii">3 3 3 3 3 3 3 3 3 3 3 3 3 3 3 3 3 3 3 3 3 3 3 3 3 3 3 3 3 3 3 3 3 3 3 3 3 3 3 3 3 3 3 3 3 3 3 3 3 3 3 3 3 3 3 3 3 3 3 3 3 3 3 3 3 3 3 3 3 3 3 3 3 3 3 3 3 3 3 3 3 3 3 3 3 3 3 3 3 3 3 3 3 3 3 3 3 3 3 3 </DataArray>
</Cells>
<PointData  Scalars="f_14"> 
<DataArray  type="Float64"  Name="f_14"  format="ascii">1.2437250253563919e-04  1.2605396072473351e-04  1.3113338570785738e-04  1.3971641078568389e-04  1.5198070042541810e-04  1.6817837108958926e-04  1.8863939498196675e-04  2.1377600089023943e-04  2.4408808977495388e-04  2.8016968578546605e-04  3.2271644587640586e-04  3.7253425305141120e-04  4.3054891937284857e-04  4.9781702514461296e-04  5.7553791999772046e-04  6.6506690988400166e-04  7.6792965111247122e-04  8.8583776844977148e-04  1.0207057088591467e-03  1.1746688355868391e-03  1.3501027589442900e-03  1.5496438902135126e-03  1.7762111935689861e-03  2.0330290977257871e-03  2.3236515141720911e-03  2.6519868923277371e-03  3.0223242238163251e-03  3.4393598883003208e-03  3.9082252120904992e-03  4.4345145881185101e-03  5.0243139820045982e-03  5.6842296240481142e-03  6.4214166612408209e-03  7.2436075171157461e-03  8.1591396806997771e-03  9.1769826193787256e-03  1.0306763484488526e-02  1.1558791253331945e-02  1.2944078927536280e-02  1.4474363385692652e-02  1.6162122468556635e-02  1.8020588858266257e-02  2.0063760299582633e-02  2.2306405701623972e-02  2.4764066653479432e-02  2.7453053886984775e-02  3.0390438225315338e-02  3.3594035567371970e-02  3.7082385475629066e-02  4.0874722959540442e-02  4.4990943078067204e-02  4.9451558023610565e-02  5.4277646395743930e-02  5.9490794426660915e-02  6.5113028981117260e-02  7.1166742221644708e-02  7.7674607904631654e-02  8.4659489354048753e-02  9.2144339246568896e-02  1.0015209143386473e-01  1.0870554512413598e-01  1.1782724184442497e-01  1.2753933570695880e-01  1.3786345760538474e-01  1.4882057406905108e-01  1.6043084160405238e-01  1.7271345744714084e-01  1.8568650775132695e-01  1.9936681430852182e-01  2.1376978099340199e-01  2.2890924118230380e-01  2.4479730745994308e-01  2.6144422497374087e-01  2.7885822982925557e-01  2.9704541393955586e-01  3.1600959774533688e-01  3.3575221221040380e-01  3.5627219146822076e-01  3.7756587744921005e-01  3.9962693775520242e-01  4.2244629796708705e-01  4.4601208947456827e-01  4.7030961380374098e-01  4.9532132428977577e-01  5.2102682579955928e-01  5.4740289305404211e-01  5.7442350793397057e-01  6.0205991597742403e-01  6.3028070209521869e-01  6.5905188534295578e-01  6.8833703239857846e-01  7.1809738920422439e-01  7.4829203004334488e-01  7.7887802314103305e-01  8.0981061169968183e-01  8.4104340911594322e-01  8.7252860697070345e-01  9.0421719424366875e-01  9.3605918608006977e-01  9.6800386033074892e-01  1.0000000000000000e+00  </DataArray> 
</PointData> 
</Piece>
</UnstructuredGrid>
</VTKFile>