<?xml version="1.0"?>
<VTKFile type="UnstructuredGrid"  version="0.1"  >
<UnstructuredGrid>
<Piece  NumberOfPoints="101" NumberOfCells="100">
<Points>
<DataArray  type="Float64"  NumberOfComponents="3"  format="ascii">0 0 0  0.001 0 0  0.002 0 0  0.003 0 0  0.004 0 0  0.005 0 0  0.006000000000000001 0 0  0.007000000000000001 0 0  0.008 0 0  0.009000000000000001 0 0  0.01 0 0  0.011 0 0  0.012 0 0  0.013 0 0  0.014 0 0  0.015 0 0  0.016 0 0  0.017 0 0  0.018 0 0  0.019 0 0  0.02 0 0  0.021 0 0  0.022 0 0  0.023 0 0  0.024 0 0  0.025 0 0  0.026 0 0  0.027 0 0  0.028 0 0  0.029 0 0  0.03 0 0  0.031 0 0  0.032 0 0  0.033 0 0  0.034 0 0  0.035 0 0  0.036 0 0  0.03700000000000001 0 0  0.03800000000000001 0 0  0.03900000000000001 0 0  0.04 0 0  0.04100000000000001 0 0  0.042 0 0  0.043 0 0  0.044 0 0  0.045 0 0  0.04600000000000001 0 0  0.047 0 0  0.04800000000000001 0 0  0.049 0 0  0.05 0 0  0.051 0 0  0.052 0 0  0.05300000000000001 0 0  0.05400000000000001 0 0  0.055 0 0  0.05600000000000001 0 0  0.057 0 0  0.05800000000000001 0 0  0.059 0 0  0.06 0 0  0.06100000000000001 0 0  0.062 0 0  0.063 0 0  0.064 0 0  0.065 0 0  0.066 0 0  0.067 0 0  0.068 0 0  0.06900000000000001 0 0  0.07000000000000001 0 0  0.07100000000000001 0 0  0.07200000000000001 0 0  0.07300000000000001 0 0  0.07400000000000001 0 0  0.075 0 0  0.07600000000000001 0 0  0.077 0 0  0.07800000000000001 0 0  0.079 0 0  0.08 0 0  0.081 0 0  0.08200000000000002 0 0  0.083 0 0  0.08400000000000001 0 0  0.08500000000000001 0 0  0.08599999999999999 0 0  0.08700000000000001 0 0  0.08800000000000001 0 0  0.08900000000000001 0 0  0.09 0 0  0.091 0 0  0.09200000000000001 0 0  0.09300000000000001 0 0  0.094 0 0  0.095 0 0  0.09600000000000002 0 0  0.09700000000000002 0 0  0.098 0 0  0.099 0 0  0.1 0 0  </DataArray>
</Points>
<Cells>
<DataArray  type="UInt32"  Name="connectivity"  format="ascii">0 1  1 2  2 3  3 4  4 5  5 6  6 7  7 8  8 9  9 10  10 11  11 12  12 13  13 14  14 15  15 16  16 17  17 18  18 19  19 20  20 21  21 22  22 23  23 24  24 25  25 26  26 27  27 28  28 29  29 30  30 31  31 32  32 33  33 34  34 35  35 36  36 37  37 38  38 39  39 40  40 41  41 42  42 43  43 44  44 45  45 46  46 47  47 48  48 49  49 50  50 51  51 52  52 53  53 54  54 55  55 56  56 57  57 58  58 59  59 60  60 61  61 62  62 63  63 64  64 65  65 66  66 67  67 68  68 69  69 70  70 71  71 72  72 73  73 74  74 75  75 76  76 77  77 78  78 79  79 80  80 81  81 82  82 83  83 84  84 85  85 86  86 87  87 88  88 89  89 90  90 91  91 92  92 93  93 94  94 95  95 96  96 97  97 98  98 99  99 100  </DataArray>
<DataArray  type="UInt32"  Name="offsets"  format="ascii">2 4 6 8 10 12 14 16 18 20 22 24 26 28 30 32 34 36 38 40 42 44 46 48 50 52 54 56 58 60 62 64 66 68 70 72 74 76 78 80 82 84 86 88 90 92 94 96 98 100 102 104 106 108 110 112 114 116 118 120 122 124 126 128 130 132 134 136 138 140 142 144 146 148 150 152 154 156 158 160 162 164 166 168 170 172 174 176 178 180 182 184 186 188 190 192 194 196 198 200 </DataArray>
<DataArray  type="UInt8"  Name="types"  format="ascii">3 3 3 3 3 3 3 3 3 3 3 3 3 3 3 3 3 3 3 3 3 3 3 3 3 3 3 3 3 3 3 3 3 3 3 3 3 3 3 3 3 3 3 3 3 3 3 3 3 3 3 3 3 3 3 3 3 3 3 3 3 3 3 3 3 3 3 3 3 3 3 3 3 3 3 3 3 3 3 3 3 3 3 3 3 3 3 3 3 3 3 3 3 3 3 3 3 3 3 3 </DataArray>
</Cells>
<PointData  Scalars="f_14"> 
<DataArray  type="Float64"  Name="f_14"  format="ascii">3.7481976073632320e-04  3.7868870069091996e-04  3.9035454693051605e-04  4.0999490684947817e-04  4.3790755356849136e-04  4.7451306676083230e-04  5.2035852891688464e-04  5.7612227579508055e-04  6.4261969893910959e-04  7.2081009689513038e-04  8.1180457006085557e-04  9.1687495186641526e-04  1.0374637661550699e-03  1.1751951971356357e-03  1.3318870540597167e-03  1.5095637077844582e-03  1.7104699705727652e-03  1.9370858838241563e-03  2.1921423708975022e-03  2.4786377037699201e-03  2.7998547229749452e-03  3.1593787400920623e-03  3.5611160410479346e-03  4.0093128966819866e-03  4.5085749744867573e-03  5.0638870322355783e-03  5.6806327604534282e-03  6.3646146264868036e-03  7.1220735584193754e-03  7.9597082924150620e-03  8.8846941924207237e-03  9.9047013367165784e-03  1.1027911651770366e-02  1.2263034860454342e-02  1.3619322999158705e-02  1.5106583246931034e-02  1.6735188799747426e-02  1.8516087514643818e-02  2.0460808041975587e-02  2.2581463159800717e-02  2.4890750022563409e-02  2.7401947037151087e-02  3.0128907083254355e-02  3.3086046802009321e-02  3.6288331687349365e-02  3.9751256728525759e-02  4.3490822370020749e-02  4.7523505576684534e-02  5.1866225817459567e-02  5.6536305810525544e-02  6.1551426906098751e-02  6.6929579020357038e-02  7.2689005074919238e-02  7.8848139940780632e-02  8.5425543933348613e-02  9.2439830955918623e-02  9.9909591442204959e-02  1.0785331030395504e-01  1.1628928014674482e-01  1.2523551007521155e-01  1.3470963046765175e-01  1.4472879415842640e-01  1.5530957452431129e-01  1.6646786102708097e-01  1.7821875281847663e-01  1.9057645106455101e-01  2.0355415069342325e-01  2.1716393231299019e-01  2.3141665508237938e-01  2.4632185135220266e-01  2.6188762391331560e-01  2.7812054671119424e-01  2.9502556989267403e-01  3.1260593005318044e-01  3.3086306654533371e-01  3.4979654469365112e-01  3.6940398673480002e-01  3.8968101126840049e-01  4.1062118195980146e-01  4.3221596618364522e-01  4.5445470423578216e-01  4.7732458967146535e-01  5.0081066125039242e-01  5.2489580688460247e-01  5.4956077989429397e-01  5.7478422778011085e-01  6.0054273361932753e-01  6.2681087008866210e-01  6.5356126600923370e-01  6.8076468520070410e-01  7.0839011732295942e-01  7.3640488027617879e-01  7.6477473362491422e-01  7.9346400241018433e-01  8.2243571061670073e-01  8.5165172347141738e-01  8.8107289766566976e-01  9.1065923851732866e-01  9.4037006302252002e-01  9.7016416768940561e-01  1.0000000000000000e+00  </DataArray> 
</PointData> 
</Piece>
</UnstructuredGrid>
</VTKFile>