<?xml version="1.0"?>
<VTKFile type="UnstructuredGrid"  version="0.1"  >
<UnstructuredGrid>
<Piece  NumberOfPoints="101" NumberOfCells="100">
<Points>
<DataArray  type="Float64"  NumberOfComponents="3"  format="ascii">0 0 0  0.001 0 0  0.002 0 0  0.003 0 0  0.004 0 0  0.005 0 0  0.006000000000000001 0 0  0.007000000000000001 0 0  0.008 0 0  0.009000000000000001 0 0  0.01 0 0  0.011 0 0  0.012 0 0  0.013 0 0  0.014 0 0  0.015 0 0  0.016 0 0  0.017 0 0  0.018 0 0  0.019 0 0  0.02 0 0  0.021 0 0  0.022 0 0  0.023 0 0  0.024 0 0  0.025 0 0  0.026 0 0  0.027 0 0  0.028 0 0  0.029 0 0  0.03 0 0  0.031 0 0  0.032 0 0  0.033 0 0  0.034 0 0  0.035 0 0  0.036 0 0  0.03700000000000001 0 0  0.03800000000000001 0 0  0.03900000000000001 0 0  0.04 0 0  0.04100000000000001 0 0  0.042 0 0  0.043 0 0  0.044 0 0  0.045 0 0  0.04600000000000001 0 0  0.047 0 0  0.04800000000000001 0 0  0.049 0 0  0.05 0 0  0.051 0 0  0.052 0 0  0.05300000000000001 0 0  0.05400000000000001 0 0  0.055 0 0  0.05600000000000001 0 0  0.057 0 0  0.05800000000000001 0 0  0.059 0 0  0.06 0 0  0.06100000000000001 0 0  0.062 0 0  0.063 0 0  0.064 0 0  0.065 0 0  0.066 0 0  0.067 0 0  0.068 0 0  0.06900000000000001 0 0  0.07000000000000001 0 0  0.07100000000000001 0 0  0.07200000000000001 0 0  0.07300000000000001 0 0  0.07400000000000001 0 0  0.075 0 0  0.07600000000000001 0 0  0.077 0 0  0.07800000000000001 0 0  0.079 0 0  0.08 0 0  0.081 0 0  0.08200000000000002 0 0  0.083 0 0  0.08400000000000001 0 0  0.08500000000000001 0 0  0.08599999999999999 0 0  0.08700000000000001 0 0  0.08800000000000001 0 0  0.08900000000000001 0 0  0.09 0 0  0.091 0 0  0.09200000000000001 0 0  0.09300000000000001 0 0  0.094 0 0  0.095 0 0  0.09600000000000002 0 0  0.09700000000000002 0 0  0.098 0 0  0.099 0 0  0.1 0 0  </DataArray>
</Points>
<Cells>
<DataArray  type="UInt32"  Name="connectivity"  format="ascii">0 1  1 2  2 3  3 4  4 5  5 6  6 7  7 8  8 9  9 10  10 11  11 12  12 13  13 14  14 15  15 16  16 17  17 18  18 19  19 20  20 21  21 22  22 23  23 24  24 25  25 26  26 27  27 28  28 29  29 30  30 31  31 32  32 33  33 34  34 35  35 36  36 37  37 38  38 39  39 40  40 41  41 42  42 43  43 44  44 45  45 46  46 47  47 48  48 49  49 50  50 51  51 52  52 53  53 54  54 55  55 56  56 57  57 58  58 59  59 60  60 61  61 62  62 63  63 64  64 65  65 66  66 67  67 68  68 69  69 70  70 71  71 72  72 73  73 74  74 75  75 76  76 77  77 78  78 79  79 80  80 81  81 82  82 83  83 84  84 85  85 86  86 87  87 88  88 89  89 90  90 91  91 92  92 93  93 94  94 95  95 96  96 97  97 98  98 99  99 100  </DataArray>
<DataArray  type="UInt32"  Name="offsets"  format="ascii">2 4 6 8 10 12 14 16 18 20 22 24 26 28 30 32 34 36 38 40 42 44 46 48 50 52 54 56 58 60 62 64 66 68 70 72 74 76 78 80 82 84 86 88 90 92 94 96 98 100 102 104 106 108 110 112 114 116 118 120 122 124 126 128 130 132 134 136 138 140 142 144 146 148 150 152 154 156 158 160 162 164 166 168 170 172 174 176 178 180 182 184 186 188 190 192 194 196 198 200 </DataArray>
<DataArray  type="UInt8"  Name="types"  format="ascii">3 3 3 3 3 3 3 3 3 3 3 3 3 3 3 3 3 3 3 3 3 3 3 3 3 3 3 3 3 3 3 3 3 3 3 3 3 3 3 3 3 3 3 3 3 3 3 3 3 3 3 3 3 3 3 3 3 3 3 3 3 3 3 3 3 3 3 3 3 3 3 3 3 3 3 3 3 3 3 3 3 3 3 3 3 3 3 3 3 3 3 3 3 3 3 3 3 3 3 3 </DataArray>
</Cells>
<PointData  Scalars="f_14"> 
<DataArray  type="Float64"  Name="f_14"  format="ascii">7.2562205897121527e-04  7.3187752447741432e-04  7.5072108716489866e-04  7.8238474663505555e-04  8.2725683782574320e-04  8.8588452955383305e-04  9.5897731264531628e-04  1.0474114675732555e-03  1.1522354982901576e-03  1.2746765154488869e-03  1.4161475484048482e-03  1.5782557612359991e-03  1.7628115434657305e-03  1.9718384411920747e-03  2.2075838888871565e-03  2.4725306962128627e-03  2.7694092377901968e-03  3.1012102869574197e-03  3.4711984271622357e-03  3.8829259667725138e-03  4.3402472747856285e-03  4.8473334462070866e-03  5.4086871968047389e-03  6.0291578775877354e-03  6.7139564897834153e-03  7.4686705713768609e-03  8.2992788165348434e-03  9.2121652795681443e-03  1.0214133005614771e-02  1.1312416921082546e-02  1.2514695808214450e-02  1.3829103180083220e-02  1.5264236865040188e-02  1.6829167103300385e-02  1.8533442953107659e-02  2.0387096799960064e-02  2.2400646759855685e-02  2.4585096766609870e-02  2.6951934134158698e-02  2.9513124387555940e-02  3.2281103161236689e-02  3.5268764970193343e-02  3.8489448669104386e-02  4.1956919426274344e-02  4.5685347053557437e-02  4.9689280550305699e-02  5.3983618738828704e-02  5.8583576890870979e-02  6.3504649269180632e-02  6.8762567535276667e-02  7.4373255003939515e-02  8.0352776756593455e-02  8.6717285659462809e-02  9.3482964367944246e-02  1.0066596343580339e-01  1.0828233568629059e-01  1.1634796704175970e-01  1.2487850404851572e-01  1.3388927837403661e-01  1.4339522859399101e-01  1.5341081962620293e-01  1.6394996020741531e-01  1.7502591884594809e-01  1.8665123871863937e-01  1.9883765201333159e-01  2.1159599424816214e-01  2.2493611912555520e-01  2.3886681450166636e-01  2.5339572007066430e-01  2.6852924737726719e-01  2.8427250278001198e-01  3.0062921399152298e-01  3.1760166082028329e-01  3.3519061073089323e-01  3.5339525982636227e-01  3.7221317983654251e-01  3.9164027167133880e-01  4.1167072606586330e-01  4.3229699180739245e-01  4.5350975199094312e-01  4.7529790870188449e-01  4.9764857647045235e-01  5.2054708478484646e-01  5.4397698988715326e-01  5.6792009601023496e-01  5.9235648614450465e-01  6.1726456235183835e-01  6.4262109557042968e-01  6.6840128477985949e-01  6.9457882532086235e-01  7.2112598608985212e-01  7.4801369525515227e-01  7.7521163407069971e-01  8.0268833829460806e-01  8.3041130665507878e-01  8.5834711574546485e-01  8.8646154067449712e-01  9.1471968074740440e-01  9.4308608940942862e-01  9.7152490764560206e-01  1.0000000000000000e+00  </DataArray> 
</PointData> 
</Piece>
</UnstructuredGrid>
</VTKFile>