<?xml version="1.0"?>
<VTKFile type="UnstructuredGrid"  version="0.1"  >
<UnstructuredGrid>
<Piece  NumberOfPoints="101" NumberOfCells="100">
<Points>
<DataArray  type="Float64"  NumberOfComponents="3"  format="ascii">0 0 0  0.001 0 0  0.002 0 0  0.003 0 0  0.004 0 0  0.005 0 0  0.006000000000000001 0 0  0.007000000000000001 0 0  0.008 0 0  0.009000000000000001 0 0  0.01 0 0  0.011 0 0  0.012 0 0  0.013 0 0  0.014 0 0  0.015 0 0  0.016 0 0  0.017 0 0  0.018 0 0  0.019 0 0  0.02 0 0  0.021 0 0  0.022 0 0  0.023 0 0  0.024 0 0  0.025 0 0  0.026 0 0  0.027 0 0  0.028 0 0  0.029 0 0  0.03 0 0  0.031 0 0  0.032 0 0  0.033 0 0  0.034 0 0  0.035 0 0  0.036 0 0  0.03700000000000001 0 0  0.03800000000000001 0 0  0.03900000000000001 0 0  0.04 0 0  0.04100000000000001 0 0  0.042 0 0  0.043 0 0  0.044 0 0  0.045 0 0  0.04600000000000001 0 0  0.047 0 0  0.04800000000000001 0 0  0.049 0 0  0.05 0 0  0.051 0 0  0.052 0 0  0.05300000000000001 0 0  0.05400000000000001 0 0  0.055 0 0  0.05600000000000001 0 0  0.057 0 0  0.05800000000000001 0 0  0.059 0 0  0.06 0 0  0.06100000000000001 0 0  0.062 0 0  0.063 0 0  0.064 0 0  0.065 0 0  0.066 0 0  0.067 0 0  0.068 0 0  0.06900000000000001 0 0  0.07000000000000001 0 0  0.07100000000000001 0 0  0.07200000000000001 0 0  0.07300000000000001 0 0  0.07400000000000001 0 0  0.075 0 0  0.07600000000000001 0 0  0.077 0 0  0.07800000000000001 0 0  0.079 0 0  0.08 0 0  0.081 0 0  0.08200000000000002 0 0  0.083 0 0  0.08400000000000001 0 0  0.08500000000000001 0 0  0.08599999999999999 0 0  0.08700000000000001 0 0  0.08800000000000001 0 0  0.08900000000000001 0 0  0.09 0 0  0.091 0 0  0.09200000000000001 0 0  0.09300000000000001 0 0  0.094 0 0  0.095 0 0  0.09600000000000002 0 0  0.09700000000000002 0 0  0.098 0 0  0.099 0 0  0.1 0 0  </DataArray>
</Points>
<Cells>
<DataArray  type="UInt32"  Name="connectivity"  format="ascii">0 1  1 2  2 3  3 4  4 5  5 6  6 7  7 8  8 9  9 10  10 11  11 12  12 13  13 14  14 15  15 16  16 17  17 18  18 19  19 20  20 21  21 22  22 23  23 24  24 25  25 26  26 27  27 28  28 29  29 30  30 31  31 32  32 33  33 34  34 35  35 36  36 37  37 38  38 39  39 40  40 41  41 42  42 43  43 44  44 45  45 46  46 47  47 48  48 49  49 50  50 51  51 52  52 53  53 54  54 55  55 56  56 57  57 58  58 59  59 60  60 61  61 62  62 63  63 64  64 65  65 66  66 67  67 68  68 69  69 70  70 71  71 72  72 73  73 74  74 75  75 76  76 77  77 78  78 79  79 80  80 81  81 82  82 83  83 84  84 85  85 86  86 87  87 88  88 89  89 90  90 91  91 92  92 93  93 94  94 95  95 96  96 97  97 98  98 99  99 100  </DataArray>
<DataArray  type="UInt32"  Name="offsets"  format="ascii">2 4 6 8 10 12 14 16 18 20 22 24 26 28 30 32 34 36 38 40 42 44 46 48 50 52 54 56 58 60 62 64 66 68 70 72 74 76 78 80 82 84 86 88 90 92 94 96 98 100 102 104 106 108 110 112 114 116 118 120 122 124 126 128 130 132 134 136 138 140 142 144 146 148 150 152 154 156 158 160 162 164 166 168 170 172 174 176 178 180 182 184 186 188 190 192 194 196 198 200 </DataArray>
<DataArray  type="UInt8"  Name="types"  format="ascii">3 3 3 3 3 3 3 3 3 3 3 3 3 3 3 3 3 3 3 3 3 3 3 3 3 3 3 3 3 3 3 3 3 3 3 3 3 3 3 3 3 3 3 3 3 3 3 3 3 3 3 3 3 3 3 3 3 3 3 3 3 3 3 3 3 3 3 3 3 3 3 3 3 3 3 3 3 3 3 3 3 3 3 3 3 3 3 3 3 3 3 3 3 3 3 3 3 3 3 3 </DataArray>
</Cells>
<PointData  Scalars="f_14"> 
<DataArray  type="Float64"  Name="f_14"  format="ascii">6.6918159039008990e-06  6.8533858242572623e-06  7.3445533238987317e-06  8.1848903851232055e-06  9.4076835008694298e-06  1.1060947362089671e-05  1.3208871893244599e-05  1.5933730658049300e-05  1.9338286865193760e-05  2.3548741542086523e-05  2.8718276920201056e-05  3.5031256681137124e-05  4.2708153424601249e-05  5.2011282495905663e-05  6.3251430087690513e-05  7.6795472220993359e-05  9.3075089701008786e-05  1.1259669229113785e-04  1.3595267298339322e-04  1.6383412016054063e-04  1.9704512140969940e-04  2.3651879748985328e-04  2.8333520817580348e-04  3.3874127306638535e-04  4.0417284959430762e-04  4.8127910702246189e-04  5.7194932875006090e-04  6.7834226536004521e-04  8.0291814708851683e-04  9.4847344636132661e-04  1.1181784583091303e-03  1.3156177393521139e-03  1.5448334106898688e-03  1.8103712945453420e-03  2.1173298060691080e-03  2.4714114727737804e-03  2.8789768962054056e-03  3.3471009073596037e-03  3.8836305983461525e-03  4.4972448383853317e-03  5.1975148029443684e-03  5.9949649614409973e-03  6.9011338823982103e-03  7.9286341263798861e-03  9.0912104078261381e-03  1.0403795118603270e-02  1.1882560220444672e-02  1.3544964432429219e-02  1.5409794565333493e-02  1.7497199789345143e-02  1.9828717567591407e-02  2.2427289947625571e-02  2.5317268878857456e-02  2.8524409218295067e-02  3.2075848102175675e-02  3.6000069399230020e-02  4.0326852024340124e-02  4.5087200980812328e-02  5.0313260116622939e-02  5.6038205725582442e-02  6.2296120298702962e-02  6.9121845933850776e-02  7.6550817142146857e-02  8.4618873045993845e-02  9.3362049243838369e-02  1.0281634991791751e-01  1.1301750107967216e-01  1.2400068617897327e-01  1.3580026564288905e-01  1.4844948225194507e-01  1.6198015460071491e-01  1.7642236121875257e-01  1.9180411824066987e-01  2.0815105380374627e-01  2.2548608261099182e-01  2.4382908432035666e-01  2.6319658960038222e-01  2.8360147782305206e-01  3.0505269044062966e-01  3.2755496411023777e-01  3.5110858758432451e-01  3.7570918627427613e-01  4.0134753821701363e-01  4.2800942493022198e-01  4.5567552033218983e-01  4.8432132052960197e-01  5.1391711684503838e-01  5.4442801397062002e-01  5.7581399460182248e-01  6.0803003133370459e-01  6.4102624599943703e-01  6.7474811600783346e-01  7.0913672660292670e-01  7.4412906733545336e-01  7.7965837041455055e-01  8.1565448800924123e-01  8.5204430500439399e-01  8.8875218319530025e-01  9.2570043243863787e-01  9.6280980387428816e-01  1.0000000000000000e+00  </DataArray> 
</PointData> 
</Piece>
</UnstructuredGrid>
</VTKFile>