<?xml version="1.0"?>
<VTKFile type="UnstructuredGrid"  version="0.1"  >
<UnstructuredGrid>
<Piece  NumberOfPoints="101" NumberOfCells="100">
<Points>
<DataArray  type="Float64"  NumberOfComponents="3"  format="ascii">0 0 0  0.001 0 0  0.002 0 0  0.003 0 0  0.004 0 0  0.005 0 0  0.006000000000000001 0 0  0.007000000000000001 0 0  0.008 0 0  0.009000000000000001 0 0  0.01 0 0  0.011 0 0  0.012 0 0  0.013 0 0  0.014 0 0  0.015 0 0  0.016 0 0  0.017 0 0  0.018 0 0  0.019 0 0  0.02 0 0  0.021 0 0  0.022 0 0  0.023 0 0  0.024 0 0  0.025 0 0  0.026 0 0  0.027 0 0  0.028 0 0  0.029 0 0  0.03 0 0  0.031 0 0  0.032 0 0  0.033 0 0  0.034 0 0  0.035 0 0  0.036 0 0  0.03700000000000001 0 0  0.03800000000000001 0 0  0.03900000000000001 0 0  0.04 0 0  0.04100000000000001 0 0  0.042 0 0  0.043 0 0  0.044 0 0  0.045 0 0  0.04600000000000001 0 0  0.047 0 0  0.04800000000000001 0 0  0.049 0 0  0.05 0 0  0.051 0 0  0.052 0 0  0.05300000000000001 0 0  0.05400000000000001 0 0  0.055 0 0  0.05600000000000001 0 0  0.057 0 0  0.05800000000000001 0 0  0.059 0 0  0.06 0 0  0.06100000000000001 0 0  0.062 0 0  0.063 0 0  0.064 0 0  0.065 0 0  0.066 0 0  0.067 0 0  0.068 0 0  0.06900000000000001 0 0  0.07000000000000001 0 0  0.07100000000000001 0 0  0.07200000000000001 0 0  0.07300000000000001 0 0  0.07400000000000001 0 0  0.075 0 0  0.07600000000000001 0 0  0.077 0 0  0.07800000000000001 0 0  0.079 0 0  0.08 0 0  0.081 0 0  0.08200000000000002 0 0  0.083 0 0  0.08400000000000001 0 0  0.08500000000000001 0 0  0.08599999999999999 0 0  0.08700000000000001 0 0  0.08800000000000001 0 0  0.08900000000000001 0 0  0.09 0 0  0.091 0 0  0.09200000000000001 0 0  0.09300000000000001 0 0  0.094 0 0  0.095 0 0  0.09600000000000002 0 0  0.09700000000000002 0 0  0.098 0 0  0.099 0 0  0.1 0 0  </DataArray>
</Points>
<Cells>
<DataArray  type="UInt32"  Name="connectivity"  format="ascii">0 1  1 2  2 3  3 4  4 5  5 6  6 7  7 8  8 9  9 10  10 11  11 12  12 13  13 14  14 15  15 16  16 17  17 18  18 19  19 20  20 21  21 22  22 23  23 24  24 25  25 26  26 27  27 28  28 29  29 30  30 31  31 32  32 33  33 34  34 35  35 36  36 37  37 38  38 39  39 40  40 41  41 42  42 43  43 44  44 45  45 46  46 47  47 48  48 49  49 50  50 51  51 52  52 53  53 54  54 55  55 56  56 57  57 58  58 59  59 60  60 61  61 62  62 63  63 64  64 65  65 66  66 67  67 68  68 69  69 70  70 71  71 72  72 73  73 74  74 75  75 76  76 77  77 78  78 79  79 80  80 81  81 82  82 83  83 84  84 85  85 86  86 87  87 88  88 89  89 90  90 91  91 92  92 93  93 94  94 95  95 96  96 97  97 98  98 99  99 100  </DataArray>
<DataArray  type="UInt32"  Name="offsets"  format="ascii">2 4 6 8 10 12 14 16 18 20 22 24 26 28 30 32 34 36 38 40 42 44 46 48 50 52 54 56 58 60 62 64 66 68 70 72 74 76 78 80 82 84 86 88 90 92 94 96 98 100 102 104 106 108 110 112 114 116 118 120 122 124 126 128 130 132 134 136 138 140 142 144 146 148 150 152 154 156 158 160 162 164 166 168 170 172 174 176 178 180 182 184 186 188 190 192 194 196 198 200 </DataArray>
<DataArray  type="UInt8"  Name="types"  format="ascii">3 3 3 3 3 3 3 3 3 3 3 3 3 3 3 3 3 3 3 3 3 3 3 3 3 3 3 3 3 3 3 3 3 3 3 3 3 3 3 3 3 3 3 3 3 3 3 3 3 3 3 3 3 3 3 3 3 3 3 3 3 3 3 3 3 3 3 3 3 3 3 3 3 3 3 3 3 3 3 3 3 3 3 3 3 3 3 3 3 3 3 3 3 3 3 3 3 3 3 3 </DataArray>
</Cells>
<PointData  Scalars="f_14"> 
<DataArray  type="Float64"  Name="f_14"  format="ascii">2.0158738629619248e-06  2.0751570340535294e-06  2.2559489486944814e-06  2.5671932919838691e-06  3.0241877413111856e-06  3.6491827416256754e-06  4.4722428868171726e-06  5.5323943551588353e-06  6.8790890410282505e-06  8.5740235763631395e-06  1.0693359406542209e-05  1.3330398529075236e-05  1.6598778458963712e-05  2.0636259475166580e-05  2.5609187232405308e-05  3.1717724373057395e-05  3.9201955800240318e-05  4.8348983700187210e-05  5.9501140120065261e-05  7.3065456768327838e-05  8.9524543517716936e-05  1.0944903861881755e-04  1.3351180458727363e-04  1.6250405377018899e-04  1.9735359633166950e-04  2.3914541037281165e-04  2.8914473861102913e-04  3.4882291792720076e-04  4.1988614653687276e-04  5.0430738790029311e-04  6.0436160006715903e-04  7.2266446324379915e-04  8.6221475625179213e-04  1.0264405035043888e-03  1.2192489774749894e-03  1.4450805967363232e-03  1.7089667059530199e-03  2.0165911612632279e-03  2.3743555719728097e-03  2.7894479672634564e-03  3.2699145647410322e-03  3.8247342164148550e-03  4.4638949976616368e-03  5.1984722867456888e-03  6.0407075577169822e-03  7.0040869795135298e-03  8.1034187807325440e-03  9.3549082050492782e-03  1.0776228749259457e-02  1.2386588247350611e-02  1.4206788243147691e-02  1.6259274984483991e-02  1.8568180277315334e-02  2.1159350362678346e-02  2.4060360926942043e-02  2.7300516330457398e-02  3.0910831145407266e-02  3.4923992134112194e-02  3.9374298877627036e-02  4.4297581384061105e-02  4.9731093168976538e-02  5.5713378508019974e-02  6.2284112815350810e-02  6.9483915400189084e-02  7.7354134196610344e-02  8.5936602446126678e-02  9.5273367734960340e-02  1.0540639424339263e-01  1.1637723954707796e-01  1.2822670781250028e-01  1.4099448174247189e-01  1.5471873614338871e-01  1.6943573649368449e-01  1.8517942638173851e-01  2.0198100814011308e-01  2.1986852141997909e-01  2.3886642481355735e-01  2.5899518593235349e-01  2.8027088557461144e-01  3.0270484175734669e-01  3.2630325943858063e-01  3.5106691170736098e-01  3.7699085806823451e-01  4.0406420519028924e-01  4.3226991512831586e-01  4.6158466555688521e-01  4.9197876599156160e-01  5.2341613331171377e-01  5.5585432915555844e-01  5.8924466094149952e-01  6.2353234739378360e-01  6.5865674853022727e-01  6.9455165912182293e-01  7.3114566367621503e-01  7.6836255004778986e-01  8.0612177785521510e-01  8.4433899701131254e-01  8.8292661085813662e-01  9.2179437766893124e-01  9.6085004364370463e-01  1.0000000000000000e+00  </DataArray> 
</PointData> 
</Piece>
</UnstructuredGrid>
</VTKFile>