<?xml version="1.0"?>
<VTKFile type="UnstructuredGrid"  version="0.1"  >
<UnstructuredGrid>
<Piece  NumberOfPoints="101" NumberOfCells="100">
<Points>
<DataArray  type="Float64"  NumberOfComponents="3"  format="ascii">0 0 0  0.001 0 0  0.002 0 0  0.003 0 0  0.004 0 0  0.005 0 0  0.006000000000000001 0 0  0.007000000000000001 0 0  0.008 0 0  0.009000000000000001 0 0  0.01 0 0  0.011 0 0  0.012 0 0  0.013 0 0  0.014 0 0  0.015 0 0  0.016 0 0  0.017 0 0  0.018 0 0  0.019 0 0  0.02 0 0  0.021 0 0  0.022 0 0  0.023 0 0  0.024 0 0  0.025 0 0  0.026 0 0  0.027 0 0  0.028 0 0  0.029 0 0  0.03 0 0  0.031 0 0  0.032 0 0  0.033 0 0  0.034 0 0  0.035 0 0  0.036 0 0  0.03700000000000001 0 0  0.03800000000000001 0 0  0.03900000000000001 0 0  0.04 0 0  0.04100000000000001 0 0  0.042 0 0  0.043 0 0  0.044 0 0  0.045 0 0  0.04600000000000001 0 0  0.047 0 0  0.04800000000000001 0 0  0.049 0 0  0.05 0 0  0.051 0 0  0.052 0 0  0.05300000000000001 0 0  0.05400000000000001 0 0  0.055 0 0  0.05600000000000001 0 0  0.057 0 0  0.05800000000000001 0 0  0.059 0 0  0.06 0 0  0.06100000000000001 0 0  0.062 0 0  0.063 0 0  0.064 0 0  0.065 0 0  0.066 0 0  0.067 0 0  0.068 0 0  0.06900000000000001 0 0  0.07000000000000001 0 0  0.07100000000000001 0 0  0.07200000000000001 0 0  0.07300000000000001 0 0  0.07400000000000001 0 0  0.075 0 0  0.07600000000000001 0 0  0.077 0 0  0.07800000000000001 0 0  0.079 0 0  0.08 0 0  0.081 0 0  0.08200000000000002 0 0  0.083 0 0  0.08400000000000001 0 0  0.08500000000000001 0 0  0.08599999999999999 0 0  0.08700000000000001 0 0  0.08800000000000001 0 0  0.08900000000000001 0 0  0.09 0 0  0.091 0 0  0.09200000000000001 0 0  0.09300000000000001 0 0  0.094 0 0  0.095 0 0  0.09600000000000002 0 0  0.09700000000000002 0 0  0.098 0 0  0.099 0 0  0.1 0 0  </DataArray>
</Points>
<Cells>
<DataArray  type="UInt32"  Name="connectivity"  format="ascii">0 1  1 2  2 3  3 4  4 5  5 6  6 7  7 8  8 9  9 10  10 11  11 12  12 13  13 14  14 15  15 16  16 17  17 18  18 19  19 20  20 21  21 22  22 23  23 24  24 25  25 26  26 27  27 28  28 29  29 30  30 31  31 32  32 33  33 34  34 35  35 36  36 37  37 38  38 39  39 40  40 41  41 42  42 43  43 44  44 45  45 46  46 47  47 48  48 49  49 50  50 51  51 52  52 53  53 54  54 55  55 56  56 57  57 58  58 59  59 60  60 61  61 62  62 63  63 64  64 65  65 66  66 67  67 68  68 69  69 70  70 71  71 72  72 73  73 74  74 75  75 76  76 77  77 78  78 79  79 80  80 81  81 82  82 83  83 84  84 85  85 86  86 87  87 88  88 89  89 90  90 91  91 92  92 93  93 94  94 95  95 96  96 97  97 98  98 99  99 100  </DataArray>
<DataArray  type="UInt32"  Name="offsets"  format="ascii">2 4 6 8 10 12 14 16 18 20 22 24 26 28 30 32 34 36 38 40 42 44 46 48 50 52 54 56 58 60 62 64 66 68 70 72 74 76 78 80 82 84 86 88 90 92 94 96 98 100 102 104 106 108 110 112 114 116 118 120 122 124 126 128 130 132 134 136 138 140 142 144 146 148 150 152 154 156 158 160 162 164 166 168 170 172 174 176 178 180 182 184 186 188 190 192 194 196 198 200 </DataArray>
<DataArray  type="UInt8"  Name="types"  format="ascii">3 3 3 3 3 3 3 3 3 3 3 3 3 3 3 3 3 3 3 3 3 3 3 3 3 3 3 3 3 3 3 3 3 3 3 3 3 3 3 3 3 3 3 3 3 3 3 3 3 3 3 3 3 3 3 3 3 3 3 3 3 3 3 3 3 3 3 3 3 3 3 3 3 3 3 3 3 3 3 3 3 3 3 3 3 3 3 3 3 3 3 3 3 3 3 3 3 3 3 3 </DataArray>
</Cells>
<PointData  Scalars="f_14"> 
<DataArray  type="Float64"  Name="f_14"  format="ascii">5.6876000887742449e-20  7.5325671994171243e-20  1.4217610828556741e-19  2.9879948965653945e-19  6.4095635637435646e-19  1.3748237853287423e-18  2.9357843600805775e-18  6.2351555046435742e-18  1.3167866626019834e-17  2.7649789641934258e-17  5.7723550579022123e-17  1.1980590267678872e-16  2.4719919137465738e-16  5.0703653583276139e-16  1.0337952495340455e-15  2.0951374314779791e-15  4.2203920178911787e-15  8.4495757551824851e-15  1.6812734291261513e-14  3.3246244557982401e-14  6.5332169349476796e-14  1.2757665692606671e-13  2.4754514435153268e-13  4.7726112062395523e-13  9.1423016275149030e-13  1.7399320215444021e-12  3.2897710927360943e-12  6.1792417355541235e-12  1.1529760121474985e-11  2.1369799954445287e-11  3.9341898082930692e-11  7.1939010381202059e-11  1.3064945717102510e-10  2.3564842692596890e-10  4.2209979709038285e-10  7.5082614669769688e-10  1.3262255151354805e-09  2.3261051651585898e-09  4.0509385895226868e-09  7.0044952916749748e-09  1.2024682185710397e-08  2.0494004017239651e-08  3.4675086871466419e-08  5.8240771961373496e-08  9.7103981245455660e-08  1.6070488193025587e-07  2.6398865352461383e-07  4.3041552582115125e-07  6.9649771421275053e-07  1.1185708701161530e-06  1.7828000773639314e-06  2.8198159506333678e-06  4.4259030605798380e-06  6.8933526094083168e-06  1.0653478478601434e-05  1.6336915138785885e-05  2.4857198497867173e-05  3.7525298380219598e-05  5.6204728888807891e-05  8.3519088573236688e-05  1.2312631565151278e-04  1.8007647200117397e-04  2.6127231472466126e-04  3.7605401838562789e-04  5.3693082865215039e-04  7.6048272150262396e-04  1.0684537884807094e-03  1.4890554792808606e-03  2.0584913905984407e-03  2.8227054034983962e-03  3.8393411513019523e-03  5.1798827526150053e-03  6.9319244786930599e-03  9.2014909637214669e-03  1.2115300649975456e-02  1.5822834920126688e-02  2.0498045966292639e-02  2.6340510637513862e-02  3.3575818540302817e-02  4.2454974075413085e-02  5.3252597409430218e-02  6.6263731756854016e-02  8.1799106135231059e-02  1.0017876504725207e-01  1.2172405876877639e-01  1.4674808752708757e-01  1.7554480514266113e-01  2.0837710588945199e-01  2.4546433381439098e-01  2.8696975671378872e-01  3.3298862710704552e-01  3.8353750010921156e-01  4.3854548489592671e-01  4.9784806690610567e-01  5.6118404996761462e-01  6.2819603319042505e-01  6.9843466310479763e-01  7.7136669757732890e-01  8.4638669836404146e-01  9.2283194989307094e-01  1.0000000000000000e+00  </DataArray> 
</PointData> 
</Piece>
</UnstructuredGrid>
</VTKFile>