<?xml version="1.0"?>
<VTKFile type="UnstructuredGrid"  version="0.1"  >
<UnstructuredGrid>
<Piece  NumberOfPoints="101" NumberOfCells="100">
<Points>
<DataArray  type="Float64"  NumberOfComponents="3"  format="ascii">0 0 0  0.001 0 0  0.002 0 0  0.003 0 0  0.004 0 0  0.005 0 0  0.006000000000000001 0 0  0.007000000000000001 0 0  0.008 0 0  0.009000000000000001 0 0  0.01 0 0  0.011 0 0  0.012 0 0  0.013 0 0  0.014 0 0  0.015 0 0  0.016 0 0  0.017 0 0  0.018 0 0  0.019 0 0  0.02 0 0  0.021 0 0  0.022 0 0  0.023 0 0  0.024 0 0  0.025 0 0  0.026 0 0  0.027 0 0  0.028 0 0  0.029 0 0  0.03 0 0  0.031 0 0  0.032 0 0  0.033 0 0  0.034 0 0  0.035 0 0  0.036 0 0  0.03700000000000001 0 0  0.03800000000000001 0 0  0.03900000000000001 0 0  0.04 0 0  0.04100000000000001 0 0  0.042 0 0  0.043 0 0  0.044 0 0  0.045 0 0  0.04600000000000001 0 0  0.047 0 0  0.04800000000000001 0 0  0.049 0 0  0.05 0 0  0.051 0 0  0.052 0 0  0.05300000000000001 0 0  0.05400000000000001 0 0  0.055 0 0  0.05600000000000001 0 0  0.057 0 0  0.05800000000000001 0 0  0.059 0 0  0.06 0 0  0.06100000000000001 0 0  0.062 0 0  0.063 0 0  0.064 0 0  0.065 0 0  0.066 0 0  0.067 0 0  0.068 0 0  0.06900000000000001 0 0  0.07000000000000001 0 0  0.07100000000000001 0 0  0.07200000000000001 0 0  0.07300000000000001 0 0  0.07400000000000001 0 0  0.075 0 0  0.07600000000000001 0 0  0.077 0 0  0.07800000000000001 0 0  0.079 0 0  0.08 0 0  0.081 0 0  0.08200000000000002 0 0  0.083 0 0  0.08400000000000001 0 0  0.08500000000000001 0 0  0.08599999999999999 0 0  0.08700000000000001 0 0  0.08800000000000001 0 0  0.08900000000000001 0 0  0.09 0 0  0.091 0 0  0.09200000000000001 0 0  0.09300000000000001 0 0  0.094 0 0  0.095 0 0  0.09600000000000002 0 0  0.09700000000000002 0 0  0.098 0 0  0.099 0 0  0.1 0 0  </DataArray>
</Points>
<Cells>
<DataArray  type="UInt32"  Name="connectivity"  format="ascii">0 1  1 2  2 3  3 4  4 5  5 6  6 7  7 8  8 9  9 10  10 11  11 12  12 13  13 14  14 15  15 16  16 17  17 18  18 19  19 20  20 21  21 22  22 23  23 24  24 25  25 26  26 27  27 28  28 29  29 30  30 31  31 32  32 33  33 34  34 35  35 36  36 37  37 38  38 39  39 40  40 41  41 42  42 43  43 44  44 45  45 46  46 47  47 48  48 49  49 50  50 51  51 52  52 53  53 54  54 55  55 56  56 57  57 58  58 59  59 60  60 61  61 62  62 63  63 64  64 65  65 66  66 67  67 68  68 69  69 70  70 71  71 72  72 73  73 74  74 75  75 76  76 77  77 78  78 79  79 80  80 81  81 82  82 83  83 84  84 85  85 86  86 87  87 88  88 89  89 90  90 91  91 92  92 93  93 94  94 95  95 96  96 97  97 98  98 99  99 100  </DataArray>
<DataArray  type="UInt32"  Name="offsets"  format="ascii">2 4 6 8 10 12 14 16 18 20 22 24 26 28 30 32 34 36 38 40 42 44 46 48 50 52 54 56 58 60 62 64 66 68 70 72 74 76 78 80 82 84 86 88 90 92 94 96 98 100 102 104 106 108 110 112 114 116 118 120 122 124 126 128 130 132 134 136 138 140 142 144 146 148 150 152 154 156 158 160 162 164 166 168 170 172 174 176 178 180 182 184 186 188 190 192 194 196 198 200 </DataArray>
<DataArray  type="UInt8"  Name="types"  format="ascii">3 3 3 3 3 3 3 3 3 3 3 3 3 3 3 3 3 3 3 3 3 3 3 3 3 3 3 3 3 3 3 3 3 3 3 3 3 3 3 3 3 3 3 3 3 3 3 3 3 3 3 3 3 3 3 3 3 3 3 3 3 3 3 3 3 3 3 3 3 3 3 3 3 3 3 3 3 3 3 3 3 3 3 3 3 3 3 3 3 3 3 3 3 3 3 3 3 3 3 3 </DataArray>
</Cells>
<PointData  Scalars="f_14"> 
<DataArray  type="Float64"  Name="f_14"  format="ascii">9.0365598981354427e-08  9.4471041419440157e-08  1.0711370864744609e-07  1.2929457089550880e-07  1.6275625949889745e-07  2.1009876058826879e-07  2.7494989219691498e-07  3.6219945000340123e-07  4.7830899407397684e-07  6.3171275890877290e-07  8.3332920786092502e-07  1.0972074329982534e-06  1.4413380418247053e-06  1.8886644986415904e-06  2.4683382322095339e-06  3.2172693186917743e-06  4.1820343377174389e-06  5.4212142168818805e-06  7.0082476578760799e-06  9.0349001966623535e-06  1.1615465193958249e-05  1.4891831158025274e-05  1.9039569810823182e-05  2.4275221215216823e-05  3.0864976019243705e-05  3.9134980303212482e-05  4.9483515406462071e-05  6.2395333126538129e-05  7.8458455364754679e-05  9.8383776039072287e-05  1.2302783114248570e-04  1.5341912926694173e-04  1.9078845863150479e-04  2.3660360635152359e-04  2.9260893987266139e-04  3.6087030749049228e-04  4.4382571282581418e-04  5.4434220501362301e-04  6.6577940004953183e-04  8.1206000699781452e-04  9.8774767334898960e-04  1.1981323845117828e-03  1.4493235511473463e-03  1.7483507929343136e-03  2.1032722768481874e-03  2.5232902910479354e-03  3.0188735314541802e-03  3.6018853472420237e-03  4.2857169347500917e-03  5.0854241886672726e-03  6.0178666178083056e-03  7.1018464144930278e-03  8.3582454369007225e-03  9.8101575294451768e-03  1.1483013275146068e-02  1.3404693955319328e-02  1.5605631195963917e-02  1.8118888518250151e-02  2.0980220794546409e-02  2.4228107453972275e-02  2.7903755195221348e-02  3.2051065961797812e-02  3.6716566027650117e-02  4.1949292240105435e-02  4.7800631781019197e-02  5.4324112243023429e-02  6.1575139379895477e-02  6.9610680579479958e-02  7.8488892921840234e-02  8.8268695618072268e-02  9.9009287666027040e-02  1.1076961269333924e-01  1.2360777416665904e-01  1.3758040540573443e-01  1.5274200012508446e-01  1.6914421050421238e-01  1.8683512102671140e-01  2.0585850749439152e-01  2.2625309167895291e-01  2.4805180298499879e-01  2.7128105922992585e-01  2.9596007916626643e-01  3.2210023965200907e-01  3.4970449039045809e-01  3.7876683889547019e-01  4.0927191777922589e-01  4.4119464560453531e-01  4.7449999139650806e-01  5.0914285148223171e-01  5.4506804564338318e-01  5.8221043765504621e-01  6.2049518318194896e-01  6.5983810575505331e-01  7.0014619920710330e-01  7.4131825255987238e-01  7.8324559098596558e-01  8.2581292417288754e-01  8.6889929125492504e-01  9.1237908950510593e-01  9.5612317224695076e-01  1.0000000000000000e+00  </DataArray> 
</PointData> 
</Piece>
</UnstructuredGrid>
</VTKFile>