<?xml version="1.0"?>
<VTKFile type="UnstructuredGrid"  version="0.1"  >
<UnstructuredGrid>
<Piece  NumberOfPoints="101" NumberOfCells="100">
<Points>
<DataArray  type="Float64"  NumberOfComponents="3"  format="ascii">0 0 0  0.001 0 0  0.002 0 0  0.003 0 0  0.004 0 0  0.005 0 0  0.006000000000000001 0 0  0.007000000000000001 0 0  0.008 0 0  0.009000000000000001 0 0  0.01 0 0  0.011 0 0  0.012 0 0  0.013 0 0  0.014 0 0  0.015 0 0  0.016 0 0  0.017 0 0  0.018 0 0  0.019 0 0  0.02 0 0  0.021 0 0  0.022 0 0  0.023 0 0  0.024 0 0  0.025 0 0  0.026 0 0  0.027 0 0  0.028 0 0  0.029 0 0  0.03 0 0  0.031 0 0  0.032 0 0  0.033 0 0  0.034 0 0  0.035 0 0  0.036 0 0  0.03700000000000001 0 0  0.03800000000000001 0 0  0.03900000000000001 0 0  0.04 0 0  0.04100000000000001 0 0  0.042 0 0  0.043 0 0  0.044 0 0  0.045 0 0  0.04600000000000001 0 0  0.047 0 0  0.04800000000000001 0 0  0.049 0 0  0.05 0 0  0.051 0 0  0.052 0 0  0.05300000000000001 0 0  0.05400000000000001 0 0  0.055 0 0  0.05600000000000001 0 0  0.057 0 0  0.05800000000000001 0 0  0.059 0 0  0.06 0 0  0.06100000000000001 0 0  0.062 0 0  0.063 0 0  0.064 0 0  0.065 0 0  0.066 0 0  0.067 0 0  0.068 0 0  0.06900000000000001 0 0  0.07000000000000001 0 0  0.07100000000000001 0 0  0.07200000000000001 0 0  0.07300000000000001 0 0  0.07400000000000001 0 0  0.075 0 0  0.07600000000000001 0 0  0.077 0 0  0.07800000000000001 0 0  0.079 0 0  0.08 0 0  0.081 0 0  0.08200000000000002 0 0  0.083 0 0  0.08400000000000001 0 0  0.08500000000000001 0 0  0.08599999999999999 0 0  0.08700000000000001 0 0  0.08800000000000001 0 0  0.08900000000000001 0 0  0.09 0 0  0.091 0 0  0.09200000000000001 0 0  0.09300000000000001 0 0  0.094 0 0  0.095 0 0  0.09600000000000002 0 0  0.09700000000000002 0 0  0.098 0 0  0.099 0 0  0.1 0 0  </DataArray>
</Points>
<Cells>
<DataArray  type="UInt32"  Name="connectivity"  format="ascii">0 1  1 2  2 3  3 4  4 5  5 6  6 7  7 8  8 9  9 10  10 11  11 12  12 13  13 14  14 15  15 16  16 17  17 18  18 19  19 20  20 21  21 22  22 23  23 24  24 25  25 26  26 27  27 28  28 29  29 30  30 31  31 32  32 33  33 34  34 35  35 36  36 37  37 38  38 39  39 40  40 41  41 42  42 43  43 44  44 45  45 46  46 47  47 48  48 49  49 50  50 51  51 52  52 53  53 54  54 55  55 56  56 57  57 58  58 59  59 60  60 61  61 62  62 63  63 64  64 65  65 66  66 67  67 68  68 69  69 70  70 71  71 72  72 73  73 74  74 75  75 76  76 77  77 78  78 79  79 80  80 81  81 82  82 83  83 84  84 85  85 86  86 87  87 88  88 89  89 90  90 91  91 92  92 93  93 94  94 95  95 96  96 97  97 98  98 99  99 100  </DataArray>
<DataArray  type="UInt32"  Name="offsets"  format="ascii">2 4 6 8 10 12 14 16 18 20 22 24 26 28 30 32 34 36 38 40 42 44 46 48 50 52 54 56 58 60 62 64 66 68 70 72 74 76 78 80 82 84 86 88 90 92 94 96 98 100 102 104 106 108 110 112 114 116 118 120 122 124 126 128 130 132 134 136 138 140 142 144 146 148 150 152 154 156 158 160 162 164 166 168 170 172 174 176 178 180 182 184 186 188 190 192 194 196 198 200 </DataArray>
<DataArray  type="UInt8"  Name="types"  format="ascii">3 3 3 3 3 3 3 3 3 3 3 3 3 3 3 3 3 3 3 3 3 3 3 3 3 3 3 3 3 3 3 3 3 3 3 3 3 3 3 3 3 3 3 3 3 3 3 3 3 3 3 3 3 3 3 3 3 3 3 3 3 3 3 3 3 3 3 3 3 3 3 3 3 3 3 3 3 3 3 3 3 3 3 3 3 3 3 3 3 3 3 3 3 3 3 3 3 3 3 3 </DataArray>
</Cells>
<PointData  Scalars="f_14"> 
<DataArray  type="Float64"  Name="f_14"  format="ascii">4.1101744673973674e-05  4.1807763146470498e-05  4.3945129989180837e-05  4.7572155402690856e-05  5.2787279763182131e-05  5.9730971343665047e-05  6.8588408329406069e-05  7.9592970070924691e-05  9.3030569262284740e-05  1.0924486317693124e-04  1.2864338815724320e-04  1.5170466714852705e-04  1.7898634509566755e-04  2.1113441137371949e-04  2.4889357198489091e-04  2.9311883689593372e-04  3.4478838947424263e-04  4.0501780536093574e-04  4.7507568713958101e-04  5.5640077865802919e-04  6.5062061867136520e-04  7.5957178742750071e-04  8.8532179174556993e-04  1.0301926238778334e-03  1.1967860168436541e-03  1.3880104038380889e-03  1.6071095716249184e-03  1.8576929774255912e-03  2.1437676756424790e-03  2.4697717747735604e-03  2.8406093160949458e-03  3.2616864341643739e-03  3.7389486250441616e-03  4.2789189115276160e-03  4.8887366558151395e-03  5.5761967293324393e-03  6.3497887070938413e-03  7.2187357106463009e-03  8.1930324797194008e-03  9.2834822088669611e-03  1.0501731642305901e-02  1.1860303878600216e-02  1.3372628297630570e-02  1.5053066986322750e-02  1.6916937007816289e-02  1.8980527832115575e-02  2.1261113225775462e-02  2.3776956884834968e-02  2.6547311090021449e-02  2.9592407667156449e-02  3.2933440549615826e-02  3.6592539264448568e-02  4.0592732700076253e-02  4.4957902561969465e-02  4.9712725983785573e-02  5.4882606835428553e-02  6.0493595356438640e-02  6.6572295842906498e-02  7.3145762228371908e-02  8.0241381523292174e-02  8.7886745212801029e-02  9.6109508857478168e-02  1.0493724029534170e-01  1.1439725700360509e-01  1.2451645334400983e-01  1.3532111858364942e-01  1.4683674675178576e-01  1.5908783955973629e-01  1.7209770377281414e-01  1.8588824457778105e-01  2.0047975663350323e-01  2.1589071462365880e-01  2.3213756524564216e-01  2.4923452266655774e-01  2.6719336955285738e-01  2.8602326583242577e-01  3.0573056737469428e-01  3.2631865677392041e-01  3.4778778839175456e-01  3.7013494975661060e-01  3.9335374132874013e-01  4.1743427652114123e-01  4.4236310371809179e-01  4.6812315185608522e-01  4.9469370092783765e-01  5.2205037854079139e-01  5.5016518340973908e-01  5.7900653639173827e-01  6.0853935938384174e-01  6.3872518210408891e-01  6.6952227646774420e-01  7.0088581795835458e-01  7.3276807308124370e-01  7.6511861168027817e-01  7.9788454260168185e-01  8.3101077090592812e-01  8.6444027456470518e-01  8.9811439833878370e-01  9.3197316231813487e-01  9.6595558242132451e-01  1.0000000000000000e+00  </DataArray> 
</PointData> 
</Piece>
</UnstructuredGrid>
</VTKFile>