<?xml version="1.0"?>
<VTKFile type="UnstructuredGrid"  version="0.1"  >
<UnstructuredGrid>
<Piece  NumberOfPoints="101" NumberOfCells="100">
<Points>
<DataArray  type="Float64"  NumberOfComponents="3"  format="ascii">0 0 0  0.001 0 0  0.002 0 0  0.003 0 0  0.004 0 0  0.005 0 0  0.006000000000000001 0 0  0.007000000000000001 0 0  0.008 0 0  0.009000000000000001 0 0  0.01 0 0  0.011 0 0  0.012 0 0  0.013 0 0  0.014 0 0  0.015 0 0  0.016 0 0  0.017 0 0  0.018 0 0  0.019 0 0  0.02 0 0  0.021 0 0  0.022 0 0  0.023 0 0  0.024 0 0  0.025 0 0  0.026 0 0  0.027 0 0  0.028 0 0  0.029 0 0  0.03 0 0  0.031 0 0  0.032 0 0  0.033 0 0  0.034 0 0  0.035 0 0  0.036 0 0  0.03700000000000001 0 0  0.03800000000000001 0 0  0.03900000000000001 0 0  0.04 0 0  0.04100000000000001 0 0  0.042 0 0  0.043 0 0  0.044 0 0  0.045 0 0  0.04600000000000001 0 0  0.047 0 0  0.04800000000000001 0 0  0.049 0 0  0.05 0 0  0.051 0 0  0.052 0 0  0.05300000000000001 0 0  0.05400000000000001 0 0  0.055 0 0  0.05600000000000001 0 0  0.057 0 0  0.05800000000000001 0 0  0.059 0 0  0.06 0 0  0.06100000000000001 0 0  0.062 0 0  0.063 0 0  0.064 0 0  0.065 0 0  0.066 0 0  0.067 0 0  0.068 0 0  0.06900000000000001 0 0  0.07000000000000001 0 0  0.07100000000000001 0 0  0.07200000000000001 0 0  0.07300000000000001 0 0  0.07400000000000001 0 0  0.075 0 0  0.07600000000000001 0 0  0.077 0 0  0.07800000000000001 0 0  0.079 0 0  0.08 0 0  0.081 0 0  0.08200000000000002 0 0  0.083 0 0  0.08400000000000001 0 0  0.08500000000000001 0 0  0.08599999999999999 0 0  0.08700000000000001 0 0  0.08800000000000001 0 0  0.08900000000000001 0 0  0.09 0 0  0.091 0 0  0.09200000000000001 0 0  0.09300000000000001 0 0  0.094 0 0  0.095 0 0  0.09600000000000002 0 0  0.09700000000000002 0 0  0.098 0 0  0.099 0 0  0.1 0 0  </DataArray>
</Points>
<Cells>
<DataArray  type="UInt32"  Name="connectivity"  format="ascii">0 1  1 2  2 3  3 4  4 5  5 6  6 7  7 8  8 9  9 10  10 11  11 12  12 13  13 14  14 15  15 16  16 17  17 18  18 19  19 20  20 21  21 22  22 23  23 24  24 25  25 26  26 27  27 28  28 29  29 30  30 31  31 32  32 33  33 34  34 35  35 36  36 37  37 38  38 39  39 40  40 41  41 42  42 43  43 44  44 45  45 46  46 47  47 48  48 49  49 50  50 51  51 52  52 53  53 54  54 55  55 56  56 57  57 58  58 59  59 60  60 61  61 62  62 63  63 64  64 65  65 66  66 67  67 68  68 69  69 70  70 71  71 72  72 73  73 74  74 75  75 76  76 77  77 78  78 79  79 80  80 81  81 82  82 83  83 84  84 85  85 86  86 87  87 88  88 89  89 90  90 91  91 92  92 93  93 94  94 95  95 96  96 97  97 98  98 99  99 100  </DataArray>
<DataArray  type="UInt32"  Name="offsets"  format="ascii">2 4 6 8 10 12 14 16 18 20 22 24 26 28 30 32 34 36 38 40 42 44 46 48 50 52 54 56 58 60 62 64 66 68 70 72 74 76 78 80 82 84 86 88 90 92 94 96 98 100 102 104 106 108 110 112 114 116 118 120 122 124 126 128 130 132 134 136 138 140 142 144 146 148 150 152 154 156 158 160 162 164 166 168 170 172 174 176 178 180 182 184 186 188 190 192 194 196 198 200 </DataArray>
<DataArray  type="UInt8"  Name="types"  format="ascii">3 3 3 3 3 3 3 3 3 3 3 3 3 3 3 3 3 3 3 3 3 3 3 3 3 3 3 3 3 3 3 3 3 3 3 3 3 3 3 3 3 3 3 3 3 3 3 3 3 3 3 3 3 3 3 3 3 3 3 3 3 3 3 3 3 3 3 3 3 3 3 3 3 3 3 3 3 3 3 3 3 3 3 3 3 3 3 3 3 3 3 3 3 3 3 3 3 3 3 3 </DataArray>
</Cells>
<PointData  Scalars="f_14"> 
<DataArray  type="Float64"  Name="f_14"  format="ascii">9.7804247154984603e-05  9.9200425746747602e-05  1.0341993027596581e-04  1.1055612896369224e-04  1.2076617790671852e-04  1.3427334348185718e-04  1.5137027116897059e-04  1.7242321786034505e-04  1.9787726904129443e-04  2.2826256611999891e-04  2.6420157255432192e-04  3.0641741016795496e-04  3.5574329906346838e-04  4.1313313571907394e-04  4.7967324409059015e-04  5.5659533372041687e-04  6.4529069687111265e-04  7.4732567344316914e-04  8.6445840779791948e-04  9.9865691548457519e-04  1.1521184701688641e-03  1.3272903116920904e-03  1.5268916650774756e-03  1.7539370473835744e-03  2.0117608245378707e-03  2.3040429636436953e-03  2.6348359077405922e-03  3.0085924796399927e-03  3.4301946993132329e-03  3.9049833754701557e-03  4.4387883065639313e-03  5.0379588996610127e-03  5.7093949876365893e-03  6.4605775962520550e-03  7.2995993831433516e-03  8.2351944409456632e-03  9.2767671270940506e-03  1.0434419553709044e-02  1.1718977342881026e-02  1.3142013226126225e-02  1.4715868042353544e-02  1.6453668666937756e-02  1.8369342386043586e-02  2.0477627215807363e-02  2.2794077655976668e-02  2.5335065362756089e-02  2.8117774226505035e-02  3.1160189347153693e-02  3.4481079414279282e-02  3.8099972020183684e-02  4.2037121463452030e-02  4.6313468637662086e-02  5.0950592645396947e-02  5.5970653831598674e-02  6.1396327992595784e-02  6.7250731587708973e-02  7.3557337858918825e-02  8.0339883850247748e-02  8.7622268411702411e-02  9.5428441372107639e-02  1.0378228417007954e-01  1.1270748234168006e-01  1.2222739037581974e-01  1.3236488956289935e-01  1.4314223957707944e-01  1.5458092464640497e-01  1.6670149527614669e-01  1.7952340659747248e-01  1.9306485451418168e-01  2.0734261091297959e-01  2.2237185928589526e-01  2.3816603218526505e-01  2.5473665199059836e-01  2.7209317651110149e-01  2.9024285097629582e-01  3.0919056797882372e-01  3.2893873692719899e-01  3.4948716454113421e-01  3.7083294787769211e-01  3.9297038131252437e-01  4.1589087881702386e-01  4.3958291276954364e-01  4.6403197041766869e-01  4.8922052896972462e-01  5.1512805013858276e-01  5.4173099479085141e-01  5.6900285817160279e-01  5.9691422598088018e-01  6.2543285137568350e-01  6.5452375276245867e-01  6.8414933203287220e-01  7.1426951268271854e-01  7.4484189704291748e-01  7.7582194164564622e-01  8.0716314955052770e-01  8.3881727826824604e-01  8.7073456174466268e-01  9.0286394470994857e-01  9.3515332755674252e-01  9.6754981979091703e-01  1.0000000000000000e+00  </DataArray> 
</PointData> 
</Piece>
</UnstructuredGrid>
</VTKFile>