<?xml version="1.0"?>
<VTKFile type="UnstructuredGrid"  version="0.1"  >
<UnstructuredGrid>
<Piece  NumberOfPoints="101" NumberOfCells="100">
<Points>
<DataArray  type="Float64"  NumberOfComponents="3"  format="ascii">0 0 0  0.001 0 0  0.002 0 0  0.003 0 0  0.004 0 0  0.005 0 0  0.006000000000000001 0 0  0.007000000000000001 0 0  0.008 0 0  0.009000000000000001 0 0  0.01 0 0  0.011 0 0  0.012 0 0  0.013 0 0  0.014 0 0  0.015 0 0  0.016 0 0  0.017 0 0  0.018 0 0  0.019 0 0  0.02 0 0  0.021 0 0  0.022 0 0  0.023 0 0  0.024 0 0  0.025 0 0  0.026 0 0  0.027 0 0  0.028 0 0  0.029 0 0  0.03 0 0  0.031 0 0  0.032 0 0  0.033 0 0  0.034 0 0  0.035 0 0  0.036 0 0  0.03700000000000001 0 0  0.03800000000000001 0 0  0.03900000000000001 0 0  0.04 0 0  0.04100000000000001 0 0  0.042 0 0  0.043 0 0  0.044 0 0  0.045 0 0  0.04600000000000001 0 0  0.047 0 0  0.04800000000000001 0 0  0.049 0 0  0.05 0 0  0.051 0 0  0.052 0 0  0.05300000000000001 0 0  0.05400000000000001 0 0  0.055 0 0  0.05600000000000001 0 0  0.057 0 0  0.05800000000000001 0 0  0.059 0 0  0.06 0 0  0.06100000000000001 0 0  0.062 0 0  0.063 0 0  0.064 0 0  0.065 0 0  0.066 0 0  0.067 0 0  0.068 0 0  0.06900000000000001 0 0  0.07000000000000001 0 0  0.07100000000000001 0 0  0.07200000000000001 0 0  0.07300000000000001 0 0  0.07400000000000001 0 0  0.075 0 0  0.07600000000000001 0 0  0.077 0 0  0.07800000000000001 0 0  0.079 0 0  0.08 0 0  0.081 0 0  0.08200000000000002 0 0  0.083 0 0  0.08400000000000001 0 0  0.08500000000000001 0 0  0.08599999999999999 0 0  0.08700000000000001 0 0  0.08800000000000001 0 0  0.08900000000000001 0 0  0.09 0 0  0.091 0 0  0.09200000000000001 0 0  0.09300000000000001 0 0  0.094 0 0  0.095 0 0  0.09600000000000002 0 0  0.09700000000000002 0 0  0.098 0 0  0.099 0 0  0.1 0 0  </DataArray>
</Points>
<Cells>
<DataArray  type="UInt32"  Name="connectivity"  format="ascii">0 1  1 2  2 3  3 4  4 5  5 6  6 7  7 8  8 9  9 10  10 11  11 12  12 13  13 14  14 15  15 16  16 17  17 18  18 19  19 20  20 21  21 22  22 23  23 24  24 25  25 26  26 27  27 28  28 29  29 30  30 31  31 32  32 33  33 34  34 35  35 36  36 37  37 38  38 39  39 40  40 41  41 42  42 43  43 44  44 45  45 46  46 47  47 48  48 49  49 50  50 51  51 52  52 53  53 54  54 55  55 56  56 57  57 58  58 59  59 60  60 61  61 62  62 63  63 64  64 65  65 66  66 67  67 68  68 69  69 70  70 71  71 72  72 73  73 74  74 75  75 76  76 77  77 78  78 79  79 80  80 81  81 82  82 83  83 84  84 85  85 86  86 87  87 88  88 89  89 90  90 91  91 92  92 93  93 94  94 95  95 96  96 97  97 98  98 99  99 100  </DataArray>
<DataArray  type="UInt32"  Name="offsets"  format="ascii">2 4 6 8 10 12 14 16 18 20 22 24 26 28 30 32 34 36 38 40 42 44 46 48 50 52 54 56 58 60 62 64 66 68 70 72 74 76 78 80 82 84 86 88 90 92 94 96 98 100 102 104 106 108 110 112 114 116 118 120 122 124 126 128 130 132 134 136 138 140 142 144 146 148 150 152 154 156 158 160 162 164 166 168 170 172 174 176 178 180 182 184 186 188 190 192 194 196 198 200 </DataArray>
<DataArray  type="UInt8"  Name="types"  format="ascii">3 3 3 3 3 3 3 3 3 3 3 3 3 3 3 3 3 3 3 3 3 3 3 3 3 3 3 3 3 3 3 3 3 3 3 3 3 3 3 3 3 3 3 3 3 3 3 3 3 3 3 3 3 3 3 3 3 3 3 3 3 3 3 3 3 3 3 3 3 3 3 3 3 3 3 3 3 3 3 3 3 3 3 3 3 3 3 3 3 3 3 3 3 3 3 3 3 3 3 3 </DataArray>
</Cells>
<PointData  Scalars="f_14"> 
<DataArray  type="Float64"  Name="f_14"  format="ascii">8.3483447197531922e-08  8.7314088511267868e-08  9.9113773222420959e-08  1.1982672988969307e-07  1.5109763460726282e-07  1.9538209124709646e-07  2.5610953793591359e-07  3.3790718796536387e-07  4.4689661410908128e-07  5.9107800388608167e-07  7.8082105506826412e-07  1.0294860577789939e-06  1.3542040410715777e-06  1.7768510741634999e-06  2.3252590382189676e-06  3.0347135615293019e-06  3.9497994799531884e-06  5.1266652862901054e-06  6.6357907033705675e-06  8.5653558829054986e-06  1.1025326905971536e-05  1.4152390327175434e-05  1.8115889514318596e-05  2.3124937494174452e-05  2.9436904869343348e-05  3.7367506994297208e-05  4.7302741774833610e-05  5.9712957862558910e-05  7.5169362209862077e-05  9.4363305345693084e-05  1.1812871158558858e-04  1.4746804878554106e-04  1.8358225708802985e-04  2.2790507709519276e-04  2.8214223354584058e-04  3.4831593918109040e-04  4.2881518318335301e-04  5.2645225732450313e-04  6.4452594858429115e-04  7.8689178722820023e-04  9.5803968185447690e-04  1.1631791954517063e-03  1.4083326168814376e-03  1.7004358584533439e-03  2.0474470607475107e-03  2.4584626093507086e-03  2.9438400640654115e-03  3.5153272694735346e-03  4.1861966573747845e-03  4.9713834684138331e-03  5.8876263150846458e-03  6.9536081853547862e-03  8.1900956507498998e-03  9.6200737015409155e-03  1.1268873292659071e-02  1.3164288356369690e-02  1.5336678731986764e-02  1.7819055190454468e-02  2.0647142504726657e-02  2.3859416348343897e-02  2.7497109707461692e-02  3.1604184478644083e-02  3.6227264008210303e-02  4.1415522519888483e-02  4.7220527685443645e-02  5.3696033025116247e-02  6.0897717385754675e-02  6.8882869435926225e-02  7.7710015936912027e-02  8.7438493490233637e-02  9.8127964515892188e-02  1.0983787936610462e-01  1.2262688770788380e-01  1.3655220359096143e-01  1.5166892992797740e-01  1.6802934942077430e-01  1.8568219023642865e-01  2.0467187593368807e-01  2.2503777022809893e-01  2.4681342812556020e-01  2.7002586571389875e-01  2.9469486144709689e-01  3.2083230205762564e-01  3.4844158626416283e-01  3.7751709918613757e-01  4.0804376982115292e-01  4.3999672308236998e-01  4.7334103673458677e-01  5.0803161212294512e-01  5.4401316587864812e-01  5.8122034784182519e-01  6.1957798830099287e-01  6.5900147535655007e-01  6.9939726082377229e-01  7.4066349065466164e-01  7.8269075343676908e-01  8.2536293818104289e-01  8.6855819039968329e-01  9.1214995345636518e-01  9.5600808039831131e-01  1.0000000000000000e+00  </DataArray> 
</PointData> 
</Piece>
</UnstructuredGrid>
</VTKFile>