<?xml version="1.0"?>
<VTKFile type="UnstructuredGrid"  version="0.1"  >
<UnstructuredGrid>
<Piece  NumberOfPoints="101" NumberOfCells="100">
<Points>
<DataArray  type="Float64"  NumberOfComponents="3"  format="ascii">0 0 0  0.001 0 0  0.002 0 0  0.003 0 0  0.004 0 0  0.005 0 0  0.006000000000000001 0 0  0.007000000000000001 0 0  0.008 0 0  0.009000000000000001 0 0  0.01 0 0  0.011 0 0  0.012 0 0  0.013 0 0  0.014 0 0  0.015 0 0  0.016 0 0  0.017 0 0  0.018 0 0  0.019 0 0  0.02 0 0  0.021 0 0  0.022 0 0  0.023 0 0  0.024 0 0  0.025 0 0  0.026 0 0  0.027 0 0  0.028 0 0  0.029 0 0  0.03 0 0  0.031 0 0  0.032 0 0  0.033 0 0  0.034 0 0  0.035 0 0  0.036 0 0  0.03700000000000001 0 0  0.03800000000000001 0 0  0.03900000000000001 0 0  0.04 0 0  0.04100000000000001 0 0  0.042 0 0  0.043 0 0  0.044 0 0  0.045 0 0  0.04600000000000001 0 0  0.047 0 0  0.04800000000000001 0 0  0.049 0 0  0.05 0 0  0.051 0 0  0.052 0 0  0.05300000000000001 0 0  0.05400000000000001 0 0  0.055 0 0  0.05600000000000001 0 0  0.057 0 0  0.05800000000000001 0 0  0.059 0 0  0.06 0 0  0.06100000000000001 0 0  0.062 0 0  0.063 0 0  0.064 0 0  0.065 0 0  0.066 0 0  0.067 0 0  0.068 0 0  0.06900000000000001 0 0  0.07000000000000001 0 0  0.07100000000000001 0 0  0.07200000000000001 0 0  0.07300000000000001 0 0  0.07400000000000001 0 0  0.075 0 0  0.07600000000000001 0 0  0.077 0 0  0.07800000000000001 0 0  0.079 0 0  0.08 0 0  0.081 0 0  0.08200000000000002 0 0  0.083 0 0  0.08400000000000001 0 0  0.08500000000000001 0 0  0.08599999999999999 0 0  0.08700000000000001 0 0  0.08800000000000001 0 0  0.08900000000000001 0 0  0.09 0 0  0.091 0 0  0.09200000000000001 0 0  0.09300000000000001 0 0  0.094 0 0  0.095 0 0  0.09600000000000002 0 0  0.09700000000000002 0 0  0.098 0 0  0.099 0 0  0.1 0 0  </DataArray>
</Points>
<Cells>
<DataArray  type="UInt32"  Name="connectivity"  format="ascii">0 1  1 2  2 3  3 4  4 5  5 6  6 7  7 8  8 9  9 10  10 11  11 12  12 13  13 14  14 15  15 16  16 17  17 18  18 19  19 20  20 21  21 22  22 23  23 24  24 25  25 26  26 27  27 28  28 29  29 30  30 31  31 32  32 33  33 34  34 35  35 36  36 37  37 38  38 39  39 40  40 41  41 42  42 43  43 44  44 45  45 46  46 47  47 48  48 49  49 50  50 51  51 52  52 53  53 54  54 55  55 56  56 57  57 58  58 59  59 60  60 61  61 62  62 63  63 64  64 65  65 66  66 67  67 68  68 69  69 70  70 71  71 72  72 73  73 74  74 75  75 76  76 77  77 78  78 79  79 80  80 81  81 82  82 83  83 84  84 85  85 86  86 87  87 88  88 89  89 90  90 91  91 92  92 93  93 94  94 95  95 96  96 97  97 98  98 99  99 100  </DataArray>
<DataArray  type="UInt32"  Name="offsets"  format="ascii">2 4 6 8 10 12 14 16 18 20 22 24 26 28 30 32 34 36 38 40 42 44 46 48 50 52 54 56 58 60 62 64 66 68 70 72 74 76 78 80 82 84 86 88 90 92 94 96 98 100 102 104 106 108 110 112 114 116 118 120 122 124 126 128 130 132 134 136 138 140 142 144 146 148 150 152 154 156 158 160 162 164 166 168 170 172 174 176 178 180 182 184 186 188 190 192 194 196 198 200 </DataArray>
<DataArray  type="UInt8"  Name="types"  format="ascii">3 3 3 3 3 3 3 3 3 3 3 3 3 3 3 3 3 3 3 3 3 3 3 3 3 3 3 3 3 3 3 3 3 3 3 3 3 3 3 3 3 3 3 3 3 3 3 3 3 3 3 3 3 3 3 3 3 3 3 3 3 3 3 3 3 3 3 3 3 3 3 3 3 3 3 3 3 3 3 3 3 3 3 3 3 3 3 3 3 3 3 3 3 3 3 3 3 3 3 3 </DataArray>
</Cells>
<PointData  Scalars="f_14"> 
<DataArray  type="Float64"  Name="f_14"  format="ascii">7.1412048006068901e-17  8.8154782577667117e-17  1.4584780242714386e-16  2.7003517536334966e-16  5.1503942951734333e-16  9.8642506952509019e-16  1.8839556164378425e-15  3.5814517844032894e-15  6.7734737743793070e-15  1.2742690750527498e-14  2.3844094453494419e-14  4.4376529915987402e-14  8.2141781741890857e-14  1.5121655319565042e-13  2.7685052378396016e-13  5.0406739107236557e-13  9.1267379590043953e-13  1.6432847044172022e-12  2.9421639508704795e-12  5.2379864919161840e-12  9.2723966230716744e-12  1.6320613541462496e-11  2.8561736878963741e-11  4.9696209412237940e-11  8.5968504459894330e-11  1.4784953289449941e-10  2.5278548069781467e-10  4.2965817205426977e-10  7.2597239272272126e-10  1.2193562664972759e-09  2.0358328399010359e-09  3.3786424934612475e-09  5.5733811380992247e-09  9.1381759366879371e-09  1.4891984799531376e-08  2.4120490085165253e-08  3.8828309134820412e-08  6.2119526247722320e-08  9.8767433207905027e-08  1.5606094371335999e-07  2.4505217610392088e-07  3.8238074635019197e-07  5.9291992374092092e-07  9.1358366008667216e-07  1.3987585807663530e-06  2.1279896804253846e-06  3.2167624599342673e-06  4.8314986276113736e-06  7.2102293049898584e-06  1.0690841378731675e-05  1.5749321179849285e-05  2.3051055165503777e-05  3.3518996168387952e-05  4.8423366441689974e-05  6.9498536525322913e-05  9.9093770765515873e-05  1.4036562866074227e-04  1.9752089824467088e-04  2.7611993144284784e-04  3.8345104247521013e-04  5.2898708061962021e-04  7.2493523102864924e-04  9.8689033944381987e-04  1.3346003878876818e-03  1.7928499512658022e-03  2.3924633315851721e-03  3.1714234209438879e-03  4.1760950681275040e-03  5.4625327858669288e-03  7.0978421252469483e-03  9.1615521990039295e-03  1.1746944071015940e-02  1.4962266652830947e-02  1.8931759164557166e-02  2.3796388115830496e-02  2.9714198281616904e-02  3.6860172518339195e-02  4.5425495730624231e-02  5.5616125009460907e-02  6.7650581861350326e-02  8.1756904142806966e-02  9.8168724955022046e-02  1.1712048292473207e-01  1.3884181194303666e-01  1.6355120682379634e-01  1.9144911209542628e-01  2.2271063130677229e-01  2.5747810044674585e-01  2.9585380778324177e-01  3.3789317011303360e-01  3.8359868892544957e-01  4.3291500681386308e-01  4.8572536304320063e-01  5.4184970707605051e-01  6.0104467095386516e-01  6.6300552795226875e-01  7.2737017939257320e-01  7.9372511850620342e-01  8.6161322523239903e-01  9.3054315462647719e-01  1.0000000000000000e+00  </DataArray> 
</PointData> 
</Piece>
</UnstructuredGrid>
</VTKFile>