<?xml version="1.0"?>
<VTKFile type="UnstructuredGrid"  version="0.1"  >
<UnstructuredGrid>
<Piece  NumberOfPoints="101" NumberOfCells="100">
<Points>
<DataArray  type="Float64"  NumberOfComponents="3"  format="ascii">0 0 0  0.001 0 0  0.002 0 0  0.003 0 0  0.004 0 0  0.005 0 0  0.006000000000000001 0 0  0.007000000000000001 0 0  0.008 0 0  0.009000000000000001 0 0  0.01 0 0  0.011 0 0  0.012 0 0  0.013 0 0  0.014 0 0  0.015 0 0  0.016 0 0  0.017 0 0  0.018 0 0  0.019 0 0  0.02 0 0  0.021 0 0  0.022 0 0  0.023 0 0  0.024 0 0  0.025 0 0  0.026 0 0  0.027 0 0  0.028 0 0  0.029 0 0  0.03 0 0  0.031 0 0  0.032 0 0  0.033 0 0  0.034 0 0  0.035 0 0  0.036 0 0  0.03700000000000001 0 0  0.03800000000000001 0 0  0.03900000000000001 0 0  0.04 0 0  0.04100000000000001 0 0  0.042 0 0  0.043 0 0  0.044 0 0  0.045 0 0  0.04600000000000001 0 0  0.047 0 0  0.04800000000000001 0 0  0.049 0 0  0.05 0 0  0.051 0 0  0.052 0 0  0.05300000000000001 0 0  0.05400000000000001 0 0  0.055 0 0  0.05600000000000001 0 0  0.057 0 0  0.05800000000000001 0 0  0.059 0 0  0.06 0 0  0.06100000000000001 0 0  0.062 0 0  0.063 0 0  0.064 0 0  0.065 0 0  0.066 0 0  0.067 0 0  0.068 0 0  0.06900000000000001 0 0  0.07000000000000001 0 0  0.07100000000000001 0 0  0.07200000000000001 0 0  0.07300000000000001 0 0  0.07400000000000001 0 0  0.075 0 0  0.07600000000000001 0 0  0.077 0 0  0.07800000000000001 0 0  0.079 0 0  0.08 0 0  0.081 0 0  0.08200000000000002 0 0  0.083 0 0  0.08400000000000001 0 0  0.08500000000000001 0 0  0.08599999999999999 0 0  0.08700000000000001 0 0  0.08800000000000001 0 0  0.08900000000000001 0 0  0.09 0 0  0.091 0 0  0.09200000000000001 0 0  0.09300000000000001 0 0  0.094 0 0  0.095 0 0  0.09600000000000002 0 0  0.09700000000000002 0 0  0.098 0 0  0.099 0 0  0.1 0 0  </DataArray>
</Points>
<Cells>
<DataArray  type="UInt32"  Name="connectivity"  format="ascii">0 1  1 2  2 3  3 4  4 5  5 6  6 7  7 8  8 9  9 10  10 11  11 12  12 13  13 14  14 15  15 16  16 17  17 18  18 19  19 20  20 21  21 22  22 23  23 24  24 25  25 26  26 27  27 28  28 29  29 30  30 31  31 32  32 33  33 34  34 35  35 36  36 37  37 38  38 39  39 40  40 41  41 42  42 43  43 44  44 45  45 46  46 47  47 48  48 49  49 50  50 51  51 52  52 53  53 54  54 55  55 56  56 57  57 58  58 59  59 60  60 61  61 62  62 63  63 64  64 65  65 66  66 67  67 68  68 69  69 70  70 71  71 72  72 73  73 74  74 75  75 76  76 77  77 78  78 79  79 80  80 81  81 82  82 83  83 84  84 85  85 86  86 87  87 88  88 89  89 90  90 91  91 92  92 93  93 94  94 95  95 96  96 97  97 98  98 99  99 100  </DataArray>
<DataArray  type="UInt32"  Name="offsets"  format="ascii">2 4 6 8 10 12 14 16 18 20 22 24 26 28 30 32 34 36 38 40 42 44 46 48 50 52 54 56 58 60 62 64 66 68 70 72 74 76 78 80 82 84 86 88 90 92 94 96 98 100 102 104 106 108 110 112 114 116 118 120 122 124 126 128 130 132 134 136 138 140 142 144 146 148 150 152 154 156 158 160 162 164 166 168 170 172 174 176 178 180 182 184 186 188 190 192 194 196 198 200 </DataArray>
<DataArray  type="UInt8"  Name="types"  format="ascii">3 3 3 3 3 3 3 3 3 3 3 3 3 3 3 3 3 3 3 3 3 3 3 3 3 3 3 3 3 3 3 3 3 3 3 3 3 3 3 3 3 3 3 3 3 3 3 3 3 3 3 3 3 3 3 3 3 3 3 3 3 3 3 3 3 3 3 3 3 3 3 3 3 3 3 3 3 3 3 3 3 3 3 3 3 3 3 3 3 3 3 3 3 3 3 3 3 3 3 3 </DataArray>
</Cells>
<PointData  Scalars="f_14"> 
<DataArray  type="Float64"  Name="f_14"  format="ascii">3.9608451944838173e-06  4.0653358367078322e-06  4.3834119788732396e-06  4.9290451089477074e-06  5.7260542228963331e-06  6.8089186181333625e-06  8.2239419526649063e-06  1.0030793969603385e-05  1.2304464178136386e-05  1.5137669916434332e-05  1.8643769632533618e-05  2.2960240926153980e-05  2.8252791902295152e-05  3.4720183682457299e-05  4.2599851466218540e-05  5.2174421275078141e-05  6.3779229354920026e-05  7.7810961045735535e-05  9.4737535596643667e-05  1.1510937272407921e-04  1.3957218545634261e-04  1.6888145171347949e-04  2.0391872383136568e-04  2.4570994050496123e-04  2.9544590900897923e-04  3.5450512662653475e-04  4.2447910851354116e-04  5.0720038425331663e-04  6.0477331659199076e-04  7.1960788275444618e-04  8.5445654078041087e-04  1.0124542799552613e-03  1.1971619251255701e-03  1.4126127290089543e-03  1.6633622441111474e-03  1.9545414162074354e-03  2.2919127842862806e-03  2.6819296072675240e-03  3.1317976657188277e-03  3.6495394073935887e-03  4.2440600190847885e-03  4.9252149146288273e-03  5.7038780307297711e-03  6.5920102196852515e-03  7.6027269224156150e-03  8.7503641980320353e-03  1.0050542079394733e-02  1.1520224119837018e-02  1.3177771896839108e-02  1.5042993146517665e-02  1.7137182121139211e-02  1.9483150693391307e-02  2.2105248678883038e-02  2.5029371815348631e-02  2.8282955826319699e-02  3.1894955011520315e-02  3.5895803848637754e-02  4.0317360163856460e-02  4.5192828533667642e-02  5.0556662719555737e-02  5.6444446111250240e-02  6.2892749363680306e-02  6.9938964657250011e-02  7.7621116289423905e-02  8.5977647615898670e-02  9.5047184698998421e-02  1.0486827738560778e-01  1.1547911892232496e-01  1.2691724561608295e-01  1.3921921845794788e-01  1.5242028903914376e-01  1.6655405249392771e-01  1.8165209059562196e-01  1.9774360850143516e-01  2.1485506898005380e-01  2.3300982825476416e-01  2.5222777784572714e-01  2.7252499699005839e-01  2.9391342035036189e-01  3.1640052578490502e-01  3.3998904694053550e-01  3.6467671533859680e-01  3.9045603645206367e-01  4.1731410401778896e-01  4.4523245649190474e-01  4.7418697914141195e-01  5.0414785477511670e-01  5.3507956555820102e-01  5.6694094773455805e-01  5.9968530040880919e-01  6.3326054882623184e-01  6.6760946184564463e-01  7.0266992254037941e-01  7.3837525009949745e-01  7.7465457044932895e-01  8.1143323228839526e-01  8.4863326454073373e-01  8.8617387059698460e-01  9.2397195414182631e-01  9.6194267087188279e-01  1.0000000000000000e+00  </DataArray> 
</PointData> 
</Piece>
</UnstructuredGrid>
</VTKFile>