<?xml version="1.0"?>
<VTKFile type="UnstructuredGrid"  version="0.1"  >
<UnstructuredGrid>
<Piece  NumberOfPoints="101" NumberOfCells="100">
<Points>
<DataArray  type="Float64"  NumberOfComponents="3"  format="ascii">0 0 0  0.001 0 0  0.002 0 0  0.003 0 0  0.004 0 0  0.005 0 0  0.006000000000000001 0 0  0.007000000000000001 0 0  0.008 0 0  0.009000000000000001 0 0  0.01 0 0  0.011 0 0  0.012 0 0  0.013 0 0  0.014 0 0  0.015 0 0  0.016 0 0  0.017 0 0  0.018 0 0  0.019 0 0  0.02 0 0  0.021 0 0  0.022 0 0  0.023 0 0  0.024 0 0  0.025 0 0  0.026 0 0  0.027 0 0  0.028 0 0  0.029 0 0  0.03 0 0  0.031 0 0  0.032 0 0  0.033 0 0  0.034 0 0  0.035 0 0  0.036 0 0  0.03700000000000001 0 0  0.03800000000000001 0 0  0.03900000000000001 0 0  0.04 0 0  0.04100000000000001 0 0  0.042 0 0  0.043 0 0  0.044 0 0  0.045 0 0  0.04600000000000001 0 0  0.047 0 0  0.04800000000000001 0 0  0.049 0 0  0.05 0 0  0.051 0 0  0.052 0 0  0.05300000000000001 0 0  0.05400000000000001 0 0  0.055 0 0  0.05600000000000001 0 0  0.057 0 0  0.05800000000000001 0 0  0.059 0 0  0.06 0 0  0.06100000000000001 0 0  0.062 0 0  0.063 0 0  0.064 0 0  0.065 0 0  0.066 0 0  0.067 0 0  0.068 0 0  0.06900000000000001 0 0  0.07000000000000001 0 0  0.07100000000000001 0 0  0.07200000000000001 0 0  0.07300000000000001 0 0  0.07400000000000001 0 0  0.075 0 0  0.07600000000000001 0 0  0.077 0 0  0.07800000000000001 0 0  0.079 0 0  0.08 0 0  0.081 0 0  0.08200000000000002 0 0  0.083 0 0  0.08400000000000001 0 0  0.08500000000000001 0 0  0.08599999999999999 0 0  0.08700000000000001 0 0  0.08800000000000001 0 0  0.08900000000000001 0 0  0.09 0 0  0.091 0 0  0.09200000000000001 0 0  0.09300000000000001 0 0  0.094 0 0  0.095 0 0  0.09600000000000002 0 0  0.09700000000000002 0 0  0.098 0 0  0.099 0 0  0.1 0 0  </DataArray>
</Points>
<Cells>
<DataArray  type="UInt32"  Name="connectivity"  format="ascii">0 1  1 2  2 3  3 4  4 5  5 6  6 7  7 8  8 9  9 10  10 11  11 12  12 13  13 14  14 15  15 16  16 17  17 18  18 19  19 20  20 21  21 22  22 23  23 24  24 25  25 26  26 27  27 28  28 29  29 30  30 31  31 32  32 33  33 34  34 35  35 36  36 37  37 38  38 39  39 40  40 41  41 42  42 43  43 44  44 45  45 46  46 47  47 48  48 49  49 50  50 51  51 52  52 53  53 54  54 55  55 56  56 57  57 58  58 59  59 60  60 61  61 62  62 63  63 64  64 65  65 66  66 67  67 68  68 69  69 70  70 71  71 72  72 73  73 74  74 75  75 76  76 77  77 78  78 79  79 80  80 81  81 82  82 83  83 84  84 85  85 86  86 87  87 88  88 89  89 90  90 91  91 92  92 93  93 94  94 95  95 96  96 97  97 98  98 99  99 100  </DataArray>
<DataArray  type="UInt32"  Name="offsets"  format="ascii">2 4 6 8 10 12 14 16 18 20 22 24 26 28 30 32 34 36 38 40 42 44 46 48 50 52 54 56 58 60 62 64 66 68 70 72 74 76 78 80 82 84 86 88 90 92 94 96 98 100 102 104 106 108 110 112 114 116 118 120 122 124 126 128 130 132 134 136 138 140 142 144 146 148 150 152 154 156 158 160 162 164 166 168 170 172 174 176 178 180 182 184 186 188 190 192 194 196 198 200 </DataArray>
<DataArray  type="UInt8"  Name="types"  format="ascii">3 3 3 3 3 3 3 3 3 3 3 3 3 3 3 3 3 3 3 3 3 3 3 3 3 3 3 3 3 3 3 3 3 3 3 3 3 3 3 3 3 3 3 3 3 3 3 3 3 3 3 3 3 3 3 3 3 3 3 3 3 3 3 3 3 3 3 3 3 3 3 3 3 3 3 3 3 3 3 3 3 3 3 3 3 3 3 3 3 3 3 3 3 3 3 3 3 3 3 3 </DataArray>
</Cells>
<PointData  Scalars="f_14"> 
<DataArray  type="Float64"  Name="f_14"  format="ascii">2.1733459117336112e-04  2.1990914326937944e-04  2.2767889979371408e-04  2.4078267835081984e-04  2.5945356564447271e-04  2.8402150712876316e-04  3.1491693955763188e-04  3.5267547306371141e-04  3.9794363071093242e-04  4.5148565434561166e-04  5.1419138592384691e-04  5.8708523322715492e-04  6.7133622790400461e-04  7.6826918200597488e-04  8.7937694654147808e-04  1.0063337719700292e-03  1.1510097659347522e-03  1.3154864378162579e-03  1.5020733128320587e-03  1.7133255903572450e-03  1.9520628118710243e-03  2.2213884934201467e-03  2.5247106657295898e-03  2.8657632520956555e-03  3.2486281999978364e-03  3.6777582670151862e-03  4.1580003452040791e-03  4.6946191906844315e-03  5.2933214069129150e-03  5.9602795111424346e-03  6.7021558940519562e-03  7.5261264626818019e-03  8.4399037368553757e-03  9.4517591494653972e-03  1.0570544281631809e-02  1.1805710745105827e-02  1.3167328406727897e-02  1.4666101633593744e-02  1.6313383223205864e-02  1.8121185670663374e-02  2.0102189415254160e-02  2.2269747702045942e-02  2.4637887690607985e-02  2.7221307443208571e-02  3.0035368429076018e-02  3.3096083189921618e-02  3.6420097825199026e-02  4.0024668973779313e-02  4.3927634992076268e-02  4.8147381057317452e-02  5.2702797958735899e-02  5.7613234378979014e-02  6.2898442512966876e-02  6.8578516921653343e-02  7.4673826573454061e-02  8.1204940086212554e-02  8.8192544247097326e-02  9.5657355956288589e-02  1.0362002781216599e-01  1.1210104763028281e-01  1.2112063226499722e-01  1.3069861618038370e-01  1.4085433529510941e-01  1.5160650670336351e-01  1.6297310494967426e-01  1.7497123560850986e-01  1.8761700698884676e-01  2.0092540084834065e-01  2.1491014306026712e-01  2.2958357522795933e-01  2.4495652828504452e-01  2.6103819915440951e-01  2.7783603156362802e-01  2.9535560212875861e-01  3.1360051282130108e-01  3.3257229092410567e-01  3.5227029756076189e-01  3.7269164584915299e-01  3.9383112968339479e-01  4.1568116408926076e-01  4.3823173802678000e-01  4.6147038043028044e-01  4.8538214018144299e-01  5.0994958060562567e-01  5.3515278896681284e-01  5.6096940131311024e-01  5.8737464289404018e-01  6.1434138423435003e-01  6.4184021280815728e-01  6.6983952011365522e-01  6.9830560380389783e-01  7.2720278438522035e-01  7.5649353585328649e-01  7.8613862949943436e-01  8.1609728998859987e-01  8.4632736268633724e-01  8.7678549109793569e-01  9.0742730317884757e-01  9.3820760518394941e-01  9.6908058164479283e-01  1.0000000000000000e+00  </DataArray> 
</PointData> 
</Piece>
</UnstructuredGrid>
</VTKFile>