<?xml version="1.0"?>
<VTKFile type="UnstructuredGrid"  version="0.1"  >
<UnstructuredGrid>
<Piece  NumberOfPoints="101" NumberOfCells="100">
<Points>
<DataArray  type="Float64"  NumberOfComponents="3"  format="ascii">0 0 0  0.001 0 0  0.002 0 0  0.003 0 0  0.004 0 0  0.005 0 0  0.006000000000000001 0 0  0.007000000000000001 0 0  0.008 0 0  0.009000000000000001 0 0  0.01 0 0  0.011 0 0  0.012 0 0  0.013 0 0  0.014 0 0  0.015 0 0  0.016 0 0  0.017 0 0  0.018 0 0  0.019 0 0  0.02 0 0  0.021 0 0  0.022 0 0  0.023 0 0  0.024 0 0  0.025 0 0  0.026 0 0  0.027 0 0  0.028 0 0  0.029 0 0  0.03 0 0  0.031 0 0  0.032 0 0  0.033 0 0  0.034 0 0  0.035 0 0  0.036 0 0  0.03700000000000001 0 0  0.03800000000000001 0 0  0.03900000000000001 0 0  0.04 0 0  0.04100000000000001 0 0  0.042 0 0  0.043 0 0  0.044 0 0  0.045 0 0  0.04600000000000001 0 0  0.047 0 0  0.04800000000000001 0 0  0.049 0 0  0.05 0 0  0.051 0 0  0.052 0 0  0.05300000000000001 0 0  0.05400000000000001 0 0  0.055 0 0  0.05600000000000001 0 0  0.057 0 0  0.05800000000000001 0 0  0.059 0 0  0.06 0 0  0.06100000000000001 0 0  0.062 0 0  0.063 0 0  0.064 0 0  0.065 0 0  0.066 0 0  0.067 0 0  0.068 0 0  0.06900000000000001 0 0  0.07000000000000001 0 0  0.07100000000000001 0 0  0.07200000000000001 0 0  0.07300000000000001 0 0  0.07400000000000001 0 0  0.075 0 0  0.07600000000000001 0 0  0.077 0 0  0.07800000000000001 0 0  0.079 0 0  0.08 0 0  0.081 0 0  0.08200000000000002 0 0  0.083 0 0  0.08400000000000001 0 0  0.08500000000000001 0 0  0.08599999999999999 0 0  0.08700000000000001 0 0  0.08800000000000001 0 0  0.08900000000000001 0 0  0.09 0 0  0.091 0 0  0.09200000000000001 0 0  0.09300000000000001 0 0  0.094 0 0  0.095 0 0  0.09600000000000002 0 0  0.09700000000000002 0 0  0.098 0 0  0.099 0 0  0.1 0 0  </DataArray>
</Points>
<Cells>
<DataArray  type="UInt32"  Name="connectivity"  format="ascii">0 1  1 2  2 3  3 4  4 5  5 6  6 7  7 8  8 9  9 10  10 11  11 12  12 13  13 14  14 15  15 16  16 17  17 18  18 19  19 20  20 21  21 22  22 23  23 24  24 25  25 26  26 27  27 28  28 29  29 30  30 31  31 32  32 33  33 34  34 35  35 36  36 37  37 38  38 39  39 40  40 41  41 42  42 43  43 44  44 45  45 46  46 47  47 48  48 49  49 50  50 51  51 52  52 53  53 54  54 55  55 56  56 57  57 58  58 59  59 60  60 61  61 62  62 63  63 64  64 65  65 66  66 67  67 68  68 69  69 70  70 71  71 72  72 73  73 74  74 75  75 76  76 77  77 78  78 79  79 80  80 81  81 82  82 83  83 84  84 85  85 86  86 87  87 88  88 89  89 90  90 91  91 92  92 93  93 94  94 95  95 96  96 97  97 98  98 99  99 100  </DataArray>
<DataArray  type="UInt32"  Name="offsets"  format="ascii">2 4 6 8 10 12 14 16 18 20 22 24 26 28 30 32 34 36 38 40 42 44 46 48 50 52 54 56 58 60 62 64 66 68 70 72 74 76 78 80 82 84 86 88 90 92 94 96 98 100 102 104 106 108 110 112 114 116 118 120 122 124 126 128 130 132 134 136 138 140 142 144 146 148 150 152 154 156 158 160 162 164 166 168 170 172 174 176 178 180 182 184 186 188 190 192 194 196 198 200 </DataArray>
<DataArray  type="UInt8"  Name="types"  format="ascii">3 3 3 3 3 3 3 3 3 3 3 3 3 3 3 3 3 3 3 3 3 3 3 3 3 3 3 3 3 3 3 3 3 3 3 3 3 3 3 3 3 3 3 3 3 3 3 3 3 3 3 3 3 3 3 3 3 3 3 3 3 3 3 3 3 3 3 3 3 3 3 3 3 3 3 3 3 3 3 3 3 3 3 3 3 3 3 3 3 3 3 3 3 3 3 3 3 3 3 3 </DataArray>
</Cells>
<PointData  Scalars="f_14"> 
<DataArray  type="Float64"  Name="f_14"  format="ascii">4.9675290918090007e-05  5.0495906306243598e-05  5.2979232274709648e-05  5.7190104004554575e-05  6.3237902801862095e-05  7.1278552112070788e-05  8.1517335829315798e-05  9.4212562492315027e-05  1.0968010526684936e-04  1.2829885358807966e-04  1.5051711788706076e-04  1.7686003386127062e-04  2.0793801716762394e-04  2.4445632310905632e-04  2.8722576873480943e-04  3.3717467665426293e-04  3.9536210064101062e-04  4.6299239263736719e-04  5.4143116891341883e-04  6.3222272973880974e-04  7.3710898183754322e-04  8.5804990596464233e-04  9.9724560302082480e-04  1.1571599410669423e-03  1.3405458122845778e-03  1.5504719932393537e-03  1.7903515836460721e-03  2.0639719781420963e-03  2.3755263023107222e-03  2.7296462183590410e-03  3.1314359774864148e-03  3.5865075651686632e-03  4.1010167524702761e-03  4.6816998312809929e-03  5.3359107743132664e-03  6.0716585221188418e-03  6.8976440596785395e-03  7.8232969047514062e-03  8.8588105896702119e-03  1.0015176678240178e-02  1.1304216820504157e-02  1.2738612311109282e-02  1.4331930582631085e-02  1.6098648034315124e-02  1.8054168570150360e-02  2.0214837198891330e-02  2.2597948033502464e-02  2.5221746019410515e-02  2.8105421720805299e-02  3.1269098502859714e-02  3.4733811465937348e-02  3.8521477516310368e-02  4.2654855997229395e-02  4.7157499354836326e-02  5.2053693375725407e-02  5.7368386607098934e-02  6.3127108656413689e-02  6.9355877164951979e-02  7.6081093358449481e-02  8.3329426197102166e-02  9.1127685276085404e-02  9.9502682765003819e-02  1.0848108481911467e-01  1.1808925304513440e-01  1.2835307675814669e-01  1.3929779692160077e-01  1.5094782281742336e-01  1.6332654264556720e-01  1.7645612939943267e-01  1.9035734350301295e-01  2.0504933382477608e-01  2.2054943879965336e-01  2.3687298949156832e-01  2.5403311651231220e-01  2.7204056277602173e-01  2.9090350411000132e-01  3.1062737976037974e-01  3.3121473482359903e-01  3.5266507660089425e-01  3.7497474681190390e-01  3.9813681151509206e-01  4.2214097046673410e-01  4.4697348750746696e-01  4.7261714339672828e-01  4.9905121232235244e-01  5.2625146309699478e-01  5.5419018581736001e-01  5.8283624450908167e-01  6.1215515601275206e-01  6.4210919508846820e-01  6.7265752543104917e-01  7.0375635599979969e-01  7.3535912177938412e-01  7.6741668780625916e-01  7.9987757502233059e-01  8.3268820625816375e-01  8.6579317040617243e-01  8.9913550262344233e-01  9.3265697820767091e-01  9.6629841762120294e-01  1.0000000000000000e+00  </DataArray> 
</PointData> 
</Piece>
</UnstructuredGrid>
</VTKFile>