<?xml version="1.0"?>
<VTKFile type="UnstructuredGrid"  version="0.1"  >
<UnstructuredGrid>
<Piece  NumberOfPoints="101" NumberOfCells="100">
<Points>
<DataArray  type="Float64"  NumberOfComponents="3"  format="ascii">0 0 0  0.001 0 0  0.002 0 0  0.003 0 0  0.004 0 0  0.005 0 0  0.006000000000000001 0 0  0.007000000000000001 0 0  0.008 0 0  0.009000000000000001 0 0  0.01 0 0  0.011 0 0  0.012 0 0  0.013 0 0  0.014 0 0  0.015 0 0  0.016 0 0  0.017 0 0  0.018 0 0  0.019 0 0  0.02 0 0  0.021 0 0  0.022 0 0  0.023 0 0  0.024 0 0  0.025 0 0  0.026 0 0  0.027 0 0  0.028 0 0  0.029 0 0  0.03 0 0  0.031 0 0  0.032 0 0  0.033 0 0  0.034 0 0  0.035 0 0  0.036 0 0  0.03700000000000001 0 0  0.03800000000000001 0 0  0.03900000000000001 0 0  0.04 0 0  0.04100000000000001 0 0  0.042 0 0  0.043 0 0  0.044 0 0  0.045 0 0  0.04600000000000001 0 0  0.047 0 0  0.04800000000000001 0 0  0.049 0 0  0.05 0 0  0.051 0 0  0.052 0 0  0.05300000000000001 0 0  0.05400000000000001 0 0  0.055 0 0  0.05600000000000001 0 0  0.057 0 0  0.05800000000000001 0 0  0.059 0 0  0.06 0 0  0.06100000000000001 0 0  0.062 0 0  0.063 0 0  0.064 0 0  0.065 0 0  0.066 0 0  0.067 0 0  0.068 0 0  0.06900000000000001 0 0  0.07000000000000001 0 0  0.07100000000000001 0 0  0.07200000000000001 0 0  0.07300000000000001 0 0  0.07400000000000001 0 0  0.075 0 0  0.07600000000000001 0 0  0.077 0 0  0.07800000000000001 0 0  0.079 0 0  0.08 0 0  0.081 0 0  0.08200000000000002 0 0  0.083 0 0  0.08400000000000001 0 0  0.08500000000000001 0 0  0.08599999999999999 0 0  0.08700000000000001 0 0  0.08800000000000001 0 0  0.08900000000000001 0 0  0.09 0 0  0.091 0 0  0.09200000000000001 0 0  0.09300000000000001 0 0  0.094 0 0  0.095 0 0  0.09600000000000002 0 0  0.09700000000000002 0 0  0.098 0 0  0.099 0 0  0.1 0 0  </DataArray>
</Points>
<Cells>
<DataArray  type="UInt32"  Name="connectivity"  format="ascii">0 1  1 2  2 3  3 4  4 5  5 6  6 7  7 8  8 9  9 10  10 11  11 12  12 13  13 14  14 15  15 16  16 17  17 18  18 19  19 20  20 21  21 22  22 23  23 24  24 25  25 26  26 27  27 28  28 29  29 30  30 31  31 32  32 33  33 34  34 35  35 36  36 37  37 38  38 39  39 40  40 41  41 42  42 43  43 44  44 45  45 46  46 47  47 48  48 49  49 50  50 51  51 52  52 53  53 54  54 55  55 56  56 57  57 58  58 59  59 60  60 61  61 62  62 63  63 64  64 65  65 66  66 67  67 68  68 69  69 70  70 71  71 72  72 73  73 74  74 75  75 76  76 77  77 78  78 79  79 80  80 81  81 82  82 83  83 84  84 85  85 86  86 87  87 88  88 89  89 90  90 91  91 92  92 93  93 94  94 95  95 96  96 97  97 98  98 99  99 100  </DataArray>
<DataArray  type="UInt32"  Name="offsets"  format="ascii">2 4 6 8 10 12 14 16 18 20 22 24 26 28 30 32 34 36 38 40 42 44 46 48 50 52 54 56 58 60 62 64 66 68 70 72 74 76 78 80 82 84 86 88 90 92 94 96 98 100 102 104 106 108 110 112 114 116 118 120 122 124 126 128 130 132 134 136 138 140 142 144 146 148 150 152 154 156 158 160 162 164 166 168 170 172 174 176 178 180 182 184 186 188 190 192 194 196 198 200 </DataArray>
<DataArray  type="UInt8"  Name="types"  format="ascii">3 3 3 3 3 3 3 3 3 3 3 3 3 3 3 3 3 3 3 3 3 3 3 3 3 3 3 3 3 3 3 3 3 3 3 3 3 3 3 3 3 3 3 3 3 3 3 3 3 3 3 3 3 3 3 3 3 3 3 3 3 3 3 3 3 3 3 3 3 3 3 3 3 3 3 3 3 3 3 3 3 3 3 3 3 3 3 3 3 3 3 3 3 3 3 3 3 3 3 3 </DataArray>
</Cells>
<PointData  Scalars="f_14"> 
<DataArray  type="Float64"  Name="f_14"  format="ascii">1.6388025105171622e-06  1.6885719802401038e-06  1.8404389034165246e-06  2.1021842688775262e-06  2.4871309948367926e-06  3.0146867787587520e-06  3.7111261382690131e-06  4.6106340691784497e-06  5.7566406828631825e-06  7.2034835054567087e-06  9.0184418963918513e-06  1.1284196335027216e-05  1.4101774180586872e-05  1.7594052966721098e-05  2.1909902363877559e-05  2.7229056624970981e-05  3.3767820591698552e-05  4.1785724119766868e-05  5.1593251986721825e-05  6.3560788842834229e-05  7.8128931377204996e-05  9.5820332373826189e-05  1.1725325344976795e-04  1.4315701466836051e-04  1.7438953951402536e-04  2.1195720245158886e-04  2.5703719295960234e-04  3.1100261395228940e-04  3.7545053325881356e-04  4.5223320362996154e-04  5.4349265886496760e-04  6.5169888033503364e-04  7.7969170864480527e-04  9.3072664863508422e-04  1.1085246816226854e-03  1.3173261559707558e-03  1.5619487751268374e-03  1.8478496405961282e-03  2.1811912355038858e-03  2.5689111521792285e-03  3.0187952744997323e-03  3.5395540227474774e-03  4.1409011558918817e-03  4.8336345042912449e-03  5.6297178758898201e-03  6.5423632425444297e-03  7.5861121719916734e-03  8.7769153274083623e-03  1.0132208713170204e-02  1.1670985205308293e-02  1.3413859771705922e-02  1.5383126664000865e-02  1.7602806754482503e-02  2.0098683101230079e-02  2.2898322757701133e-02  2.6031082803358786e-02  2.9528098564064822e-02  3.3422252019014220e-02  3.7748118458777444e-02  4.2541889569910125e-02  4.7841271278358785e-02  5.3685354888538511e-02  6.0114460308626411e-02  6.7169950455411853e-02  7.4894016282959205e-02  8.3329432276146920e-02  9.2519282689311172e-02  1.0250665928689695e-01  1.1333433185100643e-01  1.2504439325253253e-01  1.3767788142943777e-01  1.5127438116782244e-01  1.6587160912788626e-01  1.8150498608611540e-01  1.9820720086486179e-01  2.1600777087849410e-01  2.3493260462906893e-01  2.5500357182190087e-01  2.7623808703111830e-01  2.9864871301678364e-01  3.2224278986944693e-01  3.4702209612752516e-01  3.7298254787226509e-01  4.0011394155082958e-01  4.2839974590939955e-01  4.5781694793664879e-01  4.8833595712785077e-01  5.1992057168804573e-01  5.5252800950867620e-01  5.8610900588789083e-01  6.2060797903448428e-01  6.5596326341556566e-01  6.9210740999634079e-01  7.2896755139615288e-01  7.6646582896811477e-01  8.0451987782074896e-01  8.4304336485922815e-01  8.8194657405078880e-01  9.2113703233203925e-01  9.6052016889214487e-01  1.0000000000000000e+00  </DataArray> 
</PointData> 
</Piece>
</UnstructuredGrid>
</VTKFile>