<?xml version="1.0"?>
<VTKFile type="UnstructuredGrid"  version="0.1"  >
<UnstructuredGrid>
<Piece  NumberOfPoints="101" NumberOfCells="100">
<Points>
<DataArray  type="Float64"  NumberOfComponents="3"  format="ascii">0 0 0  0.001 0 0  0.002 0 0  0.003 0 0  0.004 0 0  0.005 0 0  0.006000000000000001 0 0  0.007000000000000001 0 0  0.008 0 0  0.009000000000000001 0 0  0.01 0 0  0.011 0 0  0.012 0 0  0.013 0 0  0.014 0 0  0.015 0 0  0.016 0 0  0.017 0 0  0.018 0 0  0.019 0 0  0.02 0 0  0.021 0 0  0.022 0 0  0.023 0 0  0.024 0 0  0.025 0 0  0.026 0 0  0.027 0 0  0.028 0 0  0.029 0 0  0.03 0 0  0.031 0 0  0.032 0 0  0.033 0 0  0.034 0 0  0.035 0 0  0.036 0 0  0.03700000000000001 0 0  0.03800000000000001 0 0  0.03900000000000001 0 0  0.04 0 0  0.04100000000000001 0 0  0.042 0 0  0.043 0 0  0.044 0 0  0.045 0 0  0.04600000000000001 0 0  0.047 0 0  0.04800000000000001 0 0  0.049 0 0  0.05 0 0  0.051 0 0  0.052 0 0  0.05300000000000001 0 0  0.05400000000000001 0 0  0.055 0 0  0.05600000000000001 0 0  0.057 0 0  0.05800000000000001 0 0  0.059 0 0  0.06 0 0  0.06100000000000001 0 0  0.062 0 0  0.063 0 0  0.064 0 0  0.065 0 0  0.066 0 0  0.067 0 0  0.068 0 0  0.06900000000000001 0 0  0.07000000000000001 0 0  0.07100000000000001 0 0  0.07200000000000001 0 0  0.07300000000000001 0 0  0.07400000000000001 0 0  0.075 0 0  0.07600000000000001 0 0  0.077 0 0  0.07800000000000001 0 0  0.079 0 0  0.08 0 0  0.081 0 0  0.08200000000000002 0 0  0.083 0 0  0.08400000000000001 0 0  0.08500000000000001 0 0  0.08599999999999999 0 0  0.08700000000000001 0 0  0.08800000000000001 0 0  0.08900000000000001 0 0  0.09 0 0  0.091 0 0  0.09200000000000001 0 0  0.09300000000000001 0 0  0.094 0 0  0.095 0 0  0.09600000000000002 0 0  0.09700000000000002 0 0  0.098 0 0  0.099 0 0  0.1 0 0  </DataArray>
</Points>
<Cells>
<DataArray  type="UInt32"  Name="connectivity"  format="ascii">0 1  1 2  2 3  3 4  4 5  5 6  6 7  7 8  8 9  9 10  10 11  11 12  12 13  13 14  14 15  15 16  16 17  17 18  18 19  19 20  20 21  21 22  22 23  23 24  24 25  25 26  26 27  27 28  28 29  29 30  30 31  31 32  32 33  33 34  34 35  35 36  36 37  37 38  38 39  39 40  40 41  41 42  42 43  43 44  44 45  45 46  46 47  47 48  48 49  49 50  50 51  51 52  52 53  53 54  54 55  55 56  56 57  57 58  58 59  59 60  60 61  61 62  62 63  63 64  64 65  65 66  66 67  67 68  68 69  69 70  70 71  71 72  72 73  73 74  74 75  75 76  76 77  77 78  78 79  79 80  80 81  81 82  82 83  83 84  84 85  85 86  86 87  87 88  88 89  89 90  90 91  91 92  92 93  93 94  94 95  95 96  96 97  97 98  98 99  99 100  </DataArray>
<DataArray  type="UInt32"  Name="offsets"  format="ascii">2 4 6 8 10 12 14 16 18 20 22 24 26 28 30 32 34 36 38 40 42 44 46 48 50 52 54 56 58 60 62 64 66 68 70 72 74 76 78 80 82 84 86 88 90 92 94 96 98 100 102 104 106 108 110 112 114 116 118 120 122 124 126 128 130 132 134 136 138 140 142 144 146 148 150 152 154 156 158 160 162 164 166 168 170 172 174 176 178 180 182 184 186 188 190 192 194 196 198 200 </DataArray>
<DataArray  type="UInt8"  Name="types"  format="ascii">3 3 3 3 3 3 3 3 3 3 3 3 3 3 3 3 3 3 3 3 3 3 3 3 3 3 3 3 3 3 3 3 3 3 3 3 3 3 3 3 3 3 3 3 3 3 3 3 3 3 3 3 3 3 3 3 3 3 3 3 3 3 3 3 3 3 3 3 3 3 3 3 3 3 3 3 3 3 3 3 3 3 3 3 3 3 3 3 3 3 3 3 3 3 3 3 3 3 3 3 </DataArray>
</Cells>
<PointData  Scalars="f_14"> 
<DataArray  type="Float64"  Name="f_14"  format="ascii">1.6867138616031562e-04  1.7079527769405694e-04  1.7720775777183375e-04  1.8803174628903612e-04  2.0347378950933505e-04  2.2382658510539439e-04  2.4947252780611553e-04  2.8088828582740084e-04  3.1865042058079558e-04  3.6344206402918447e-04  4.1606066939311364e-04  4.7742685160806356e-04  5.4859433389596406e-04  6.3076101594894721e-04  7.2528117743770552e-04  8.3367882776210183e-04  9.5766220907355802e-04  1.0991394545385956e-03  1.2602353975092932e-03  1.4433095196566988e-03  1.6509750171553894e-03  1.8861189536419540e-03  2.1519234568822777e-03  2.4518879028641348e-03  2.7898520163935239e-03  3.1700198012475254e-03  3.5969841955785687e-03  4.0757523296555392e-03  4.6117712432743700e-03  5.2109538994114090e-03  5.8797053090945944e-03  6.6249485602289469e-03  7.4541505204650379e-03  8.3753469614051192e-03  9.3971668287959366e-03  1.0528855361185908e-02  1.1780295738181561e-02  1.3162028919305034e-02  1.4685271315935923e-02  1.6361929922340326e-02  1.8204614517786856e-02  2.0226646540671592e-02  2.2442064227871646e-02  2.4865623608669361e-02  2.7512794942968009e-02  3.0399754198575022e-02  3.3543369172444763e-02  3.6961179876299065e-02  4.0671372828287929e-02  4.4692748919555034e-02  4.9044684557925593e-02  5.3747085830536008e-02  5.8820335473114535e-02  6.4285232485728455e-02  7.0162924292985915e-02  7.6474831410657251e-02  8.3242564650100576e-02  9.0487834966265626e-02  9.8232356133835894e-02  1.0649774051855299e-01  1.1530538829617785e-01  1.2467637055896806e-01  1.3463130683802960e-01  1.4519023765835909e-01  1.5637249283069263e-01  1.6819655626924213e-01  1.8067992820577802e-01  1.9383898574706279e-01  2.0768884279308159e-01  2.2224321039660769e-01  2.3751425869915671e-01  2.5351248162317347e-01  2.7024656553426646e-01  2.8772326310947510e-01  3.0594727365705804e-01  3.2492113112939758e-01  3.4464510105276097e-01  3.6511708756542927e-01  3.8633255170893338e-01  4.0828444205573861e-01  4.3096313868099312e-01  4.5435641139619676e-01  4.7844939305959144e-01  5.0322456866246745e-01  5.2866178076352022e-01  5.5473825170609148e-01  5.8142862290702990e-01  6.0870501135257282e-01  6.3653708327783398e-01  6.6489214484406567e-01  6.9373524946372678e-01  7.2302932125964969e-01  7.5273529398324979e-01  7.8281226455986030e-01  8.1321766027894382e-01  8.4390741850510043e-01  8.7483617765436694e-01  9.0595747806106519e-01  9.3722397125500134e-01  9.6858763607862053e-01  1.0000000000000000e+00  </DataArray> 
</PointData> 
</Piece>
</UnstructuredGrid>
</VTKFile>