<?xml version="1.0"?>
<VTKFile type="UnstructuredGrid"  version="0.1"  >
<UnstructuredGrid>
<Piece  NumberOfPoints="101" NumberOfCells="100">
<Points>
<DataArray  type="Float64"  NumberOfComponents="3"  format="ascii">0 0 0  0.001 0 0  0.002 0 0  0.003 0 0  0.004 0 0  0.005 0 0  0.006000000000000001 0 0  0.007000000000000001 0 0  0.008 0 0  0.009000000000000001 0 0  0.01 0 0  0.011 0 0  0.012 0 0  0.013 0 0  0.014 0 0  0.015 0 0  0.016 0 0  0.017 0 0  0.018 0 0  0.019 0 0  0.02 0 0  0.021 0 0  0.022 0 0  0.023 0 0  0.024 0 0  0.025 0 0  0.026 0 0  0.027 0 0  0.028 0 0  0.029 0 0  0.03 0 0  0.031 0 0  0.032 0 0  0.033 0 0  0.034 0 0  0.035 0 0  0.036 0 0  0.03700000000000001 0 0  0.03800000000000001 0 0  0.03900000000000001 0 0  0.04 0 0  0.04100000000000001 0 0  0.042 0 0  0.043 0 0  0.044 0 0  0.045 0 0  0.04600000000000001 0 0  0.047 0 0  0.04800000000000001 0 0  0.049 0 0  0.05 0 0  0.051 0 0  0.052 0 0  0.05300000000000001 0 0  0.05400000000000001 0 0  0.055 0 0  0.05600000000000001 0 0  0.057 0 0  0.05800000000000001 0 0  0.059 0 0  0.06 0 0  0.06100000000000001 0 0  0.062 0 0  0.063 0 0  0.064 0 0  0.065 0 0  0.066 0 0  0.067 0 0  0.068 0 0  0.06900000000000001 0 0  0.07000000000000001 0 0  0.07100000000000001 0 0  0.07200000000000001 0 0  0.07300000000000001 0 0  0.07400000000000001 0 0  0.075 0 0  0.07600000000000001 0 0  0.077 0 0  0.07800000000000001 0 0  0.079 0 0  0.08 0 0  0.081 0 0  0.08200000000000002 0 0  0.083 0 0  0.08400000000000001 0 0  0.08500000000000001 0 0  0.08599999999999999 0 0  0.08700000000000001 0 0  0.08800000000000001 0 0  0.08900000000000001 0 0  0.09 0 0  0.091 0 0  0.09200000000000001 0 0  0.09300000000000001 0 0  0.094 0 0  0.095 0 0  0.09600000000000002 0 0  0.09700000000000002 0 0  0.098 0 0  0.099 0 0  0.1 0 0  </DataArray>
</Points>
<Cells>
<DataArray  type="UInt32"  Name="connectivity"  format="ascii">0 1  1 2  2 3  3 4  4 5  5 6  6 7  7 8  8 9  9 10  10 11  11 12  12 13  13 14  14 15  15 16  16 17  17 18  18 19  19 20  20 21  21 22  22 23  23 24  24 25  25 26  26 27  27 28  28 29  29 30  30 31  31 32  32 33  33 34  34 35  35 36  36 37  37 38  38 39  39 40  40 41  41 42  42 43  43 44  44 45  45 46  46 47  47 48  48 49  49 50  50 51  51 52  52 53  53 54  54 55  55 56  56 57  57 58  58 59  59 60  60 61  61 62  62 63  63 64  64 65  65 66  66 67  67 68  68 69  69 70  70 71  71 72  72 73  73 74  74 75  75 76  76 77  77 78  78 79  79 80  80 81  81 82  82 83  83 84  84 85  85 86  86 87  87 88  88 89  89 90  90 91  91 92  92 93  93 94  94 95  95 96  96 97  97 98  98 99  99 100  </DataArray>
<DataArray  type="UInt32"  Name="offsets"  format="ascii">2 4 6 8 10 12 14 16 18 20 22 24 26 28 30 32 34 36 38 40 42 44 46 48 50 52 54 56 58 60 62 64 66 68 70 72 74 76 78 80 82 84 86 88 90 92 94 96 98 100 102 104 106 108 110 112 114 116 118 120 122 124 126 128 130 132 134 136 138 140 142 144 146 148 150 152 154 156 158 160 162 164 166 168 170 172 174 176 178 180 182 184 186 188 190 192 194 196 198 200 </DataArray>
<DataArray  type="UInt8"  Name="types"  format="ascii">3 3 3 3 3 3 3 3 3 3 3 3 3 3 3 3 3 3 3 3 3 3 3 3 3 3 3 3 3 3 3 3 3 3 3 3 3 3 3 3 3 3 3 3 3 3 3 3 3 3 3 3 3 3 3 3 3 3 3 3 3 3 3 3 3 3 3 3 3 3 3 3 3 3 3 3 3 3 3 3 3 3 3 3 3 3 3 3 3 3 3 3 3 3 3 3 3 3 3 3 </DataArray>
</Cells>
<PointData  Scalars="f_14"> 
<DataArray  type="Float64"  Name="f_14"  format="ascii">5.8949438885062064e-06  6.0404072827873846e-06  6.4827527699831478e-06  7.2400348101098890e-06  8.3429765747630364e-06  9.8359322788314125e-06  1.1778261970676537e-05  1.4246146481949006e-05  1.7334878392043777e-05  2.1161673175482428e-05  2.5869053186362069e-05  3.1628865791940958e-05  3.8647005780745184e-05  4.7168921103729192e-05  5.7485990002961055e-05  6.9942866559885835e-05  8.4945900546700830e-05  1.0297274605305975e-04  1.2458328151848886e-04  1.5043197132805133e-04  1.8128180579040566e-04  2.1801996184422017e-04  2.6167533092699789e-04  3.1343806275207033e-04  3.7468127390533448e-04  4.4698506779506682e-04  5.3216300714337399e-04  6.3229117145564265e-04  7.4973991929283437e-04  8.8720845824671814e-04  1.0477623038349768e-03  1.2348736816675033e-03  1.4524648947981491e-03  1.7049546398295100e-03  1.9973072108112251e-03  2.3350844790797757e-03  2.7245004798490181e-03  3.1724783726186294e-03  3.6867094725076426e-03  4.2757139737889353e-03  4.9489029057226399e-03  5.7166407749803085e-03  6.5903082594412797e-03  7.5823642260679936e-03  8.7064062522859229e-03  9.9772287373868767e-03  1.1410877599733417e-02  1.3024700468961403e-02  1.4837391202136684e-02  1.6869027481250652e-02  1.9141100188998745e-02  2.1676533213007693e-02  2.4499692298136283e-02  2.7636381554710928e-02  3.1113826240035159e-02  3.4960640463534920e-02  3.9206778524552378e-02  4.3883468677860658e-02  4.9023128236853057e-02  5.4659259069016308e-02  6.0826322713184867e-02  6.7559594553037242e-02  7.4894996715574466e-02  8.2868909625443118e-02  9.1517962433751376e-02  1.0087880285057090e-01  1.1098784723995164e-01  1.2188101218064365e-01  1.3359342904975385e-01  1.4615914354459156e-01  1.5961080241374645e-01  1.7397933001531504e-01  1.8929359765114812e-01  2.0558008893381688e-01  2.2286256472044627e-01  2.4116173138749927e-01  2.6049491641616956e-01  2.8087575540284598e-01  3.0231389469743408e-01  3.2481471389913175e-01  3.4837907240067567e-01  3.7300308406510713e-01  3.9867792394222018e-01  4.2538967068465827e-01  4.5311918800729184e-01  4.8184204815054138e-01  5.1152849986280058e-01  5.4214348291444270e-01  5.7364669060294982e-01  6.0599268111357807e-01  6.3913103797184079e-01  6.7300657917325057e-01  7.0755961391307787e-01  7.4272624517595798e-01  7.7843871579375246e-01  8.1462579495206211e-01  8.5121320153281388e-01  8.8812406013359557e-01  9.2527938511429186e-01  9.6259858759755912e-01  1.0000000000000000e+00  </DataArray> 
</PointData> 
</Piece>
</UnstructuredGrid>
</VTKFile>