<?xml version="1.0"?>
<VTKFile type="UnstructuredGrid"  version="0.1"  >
<UnstructuredGrid>
<Piece  NumberOfPoints="101" NumberOfCells="100">
<Points>
<DataArray  type="Float64"  NumberOfComponents="3"  format="ascii">0 0 0  0.001 0 0  0.002 0 0  0.003 0 0  0.004 0 0  0.005 0 0  0.006000000000000001 0 0  0.007000000000000001 0 0  0.008 0 0  0.009000000000000001 0 0  0.01 0 0  0.011 0 0  0.012 0 0  0.013 0 0  0.014 0 0  0.015 0 0  0.016 0 0  0.017 0 0  0.018 0 0  0.019 0 0  0.02 0 0  0.021 0 0  0.022 0 0  0.023 0 0  0.024 0 0  0.025 0 0  0.026 0 0  0.027 0 0  0.028 0 0  0.029 0 0  0.03 0 0  0.031 0 0  0.032 0 0  0.033 0 0  0.034 0 0  0.035 0 0  0.036 0 0  0.03700000000000001 0 0  0.03800000000000001 0 0  0.03900000000000001 0 0  0.04 0 0  0.04100000000000001 0 0  0.042 0 0  0.043 0 0  0.044 0 0  0.045 0 0  0.04600000000000001 0 0  0.047 0 0  0.04800000000000001 0 0  0.049 0 0  0.05 0 0  0.051 0 0  0.052 0 0  0.05300000000000001 0 0  0.05400000000000001 0 0  0.055 0 0  0.05600000000000001 0 0  0.057 0 0  0.05800000000000001 0 0  0.059 0 0  0.06 0 0  0.06100000000000001 0 0  0.062 0 0  0.063 0 0  0.064 0 0  0.065 0 0  0.066 0 0  0.067 0 0  0.068 0 0  0.06900000000000001 0 0  0.07000000000000001 0 0  0.07100000000000001 0 0  0.07200000000000001 0 0  0.07300000000000001 0 0  0.07400000000000001 0 0  0.075 0 0  0.07600000000000001 0 0  0.077 0 0  0.07800000000000001 0 0  0.079 0 0  0.08 0 0  0.081 0 0  0.08200000000000002 0 0  0.083 0 0  0.08400000000000001 0 0  0.08500000000000001 0 0  0.08599999999999999 0 0  0.08700000000000001 0 0  0.08800000000000001 0 0  0.08900000000000001 0 0  0.09 0 0  0.091 0 0  0.09200000000000001 0 0  0.09300000000000001 0 0  0.094 0 0  0.095 0 0  0.09600000000000002 0 0  0.09700000000000002 0 0  0.098 0 0  0.099 0 0  0.1 0 0  </DataArray>
</Points>
<Cells>
<DataArray  type="UInt32"  Name="connectivity"  format="ascii">0 1  1 2  2 3  3 4  4 5  5 6  6 7  7 8  8 9  9 10  10 11  11 12  12 13  13 14  14 15  15 16  16 17  17 18  18 19  19 20  20 21  21 22  22 23  23 24  24 25  25 26  26 27  27 28  28 29  29 30  30 31  31 32  32 33  33 34  34 35  35 36  36 37  37 38  38 39  39 40  40 41  41 42  42 43  43 44  44 45  45 46  46 47  47 48  48 49  49 50  50 51  51 52  52 53  53 54  54 55  55 56  56 57  57 58  58 59  59 60  60 61  61 62  62 63  63 64  64 65  65 66  66 67  67 68  68 69  69 70  70 71  71 72  72 73  73 74  74 75  75 76  76 77  77 78  78 79  79 80  80 81  81 82  82 83  83 84  84 85  85 86  86 87  87 88  88 89  89 90  90 91  91 92  92 93  93 94  94 95  95 96  96 97  97 98  98 99  99 100  </DataArray>
<DataArray  type="UInt32"  Name="offsets"  format="ascii">2 4 6 8 10 12 14 16 18 20 22 24 26 28 30 32 34 36 38 40 42 44 46 48 50 52 54 56 58 60 62 64 66 68 70 72 74 76 78 80 82 84 86 88 90 92 94 96 98 100 102 104 106 108 110 112 114 116 118 120 122 124 126 128 130 132 134 136 138 140 142 144 146 148 150 152 154 156 158 160 162 164 166 168 170 172 174 176 178 180 182 184 186 188 190 192 194 196 198 200 </DataArray>
<DataArray  type="UInt8"  Name="types"  format="ascii">3 3 3 3 3 3 3 3 3 3 3 3 3 3 3 3 3 3 3 3 3 3 3 3 3 3 3 3 3 3 3 3 3 3 3 3 3 3 3 3 3 3 3 3 3 3 3 3 3 3 3 3 3 3 3 3 3 3 3 3 3 3 3 3 3 3 3 3 3 3 3 3 3 3 3 3 3 3 3 3 3 3 3 3 3 3 3 3 3 3 3 3 3 3 3 3 3 3 3 3 </DataArray>
</Cells>
<PointData  Scalars="f_14"> 
<DataArray  type="Float64"  Name="f_14"  format="ascii">9.8586689625813884e-04  9.9364107065006389e-04  1.0170497983175415e-03  1.0563521634062096e-03  1.1119815398570913e-03  1.1845479353858504e-03  1.2748412598358376e-03  1.3838355044982916e-03  1.5126938148965416e-03  1.6627744352413908e-03  1.8356374982461301e-03  2.0330526292100608e-03  2.2570073282121529e-03  2.5097160888803097e-03  2.7936302065015252e-03  3.1114482222059209e-03  3.4661269435925456e-03  3.8608929754741072e-03  4.2992546874174491e-03  4.7850145374710518e-03  5.3222816639341671e-03  5.9154846492777422e-03  6.5693843524279654e-03  7.2890866976319194e-03  8.0800553001136016e-03  8.9481238007791900e-03  9.8995077744338418e-03  1.0940816068427558e-02  1.2079061421462605e-02  1.3321670205583549e-02  1.4676491128254691e-02  1.6151802726034007e-02  1.7756319476807704e-02  1.9499196353987888e-02  2.1390031643630191e-02  2.3438867844231836e-02  2.5656190469153038e-02  2.8052924573291244e-02  3.0640428828947363e-02  3.3430486980865960e-02  3.6435296517306072e-02  3.9667454402793290e-02  4.3139939728985333e-02  4.6866093152910487e-02  5.0859593006738750e-02  5.5134427980239410e-02  5.9704866296150454e-02  6.4585421319799594e-02  6.9790813567419938e-02  7.5335929102593610e-02  8.1235774337034994e-02  8.7505427280328826e-02  9.4159985313110484e-02  1.0121450958930178e-01  1.0868396620517591e-01  1.1658316430595689e-01  1.2492669133408839e-01  1.3372884565692378e-01  1.4300356684507842e-01  1.5276436390569245e-01  1.6302424180704020e-01  1.7379562666190215e-01  1.8509028996653581e-01  1.9691927231955272e-01  2.0929280707015707e-01  2.2222024436767676e-01  2.3570997610374209e-01  2.4976936225452093e-01  2.6440465914278244e-01  2.7962095014794025e-01  2.9542207939636878e-01  3.1181058896397396e-01  3.2878766011804456e-01  3.4635305911568548e-01  3.6450508806154858e-01  3.8324054130808788e-01  4.0255466785720800e-01  4.2244114019298873e-01  4.4289202994132859e-01  4.6389779071397608e-01  4.8544724845182868e-01  5.0752759953578142e-01  5.3012441688323741e-01  5.5322166419496621e-01  5.7680171846082384e-01  6.0084540077436022e-01  6.2533201544610584e-01  6.5023939734386660e-01  6.7554396732626232e-01  7.0122079557362438e-01  7.2724367255880085e-01  7.5358518734006319e-01  7.8021681279973398e-01  8.0710899739599773e-01  8.3423126294217831e-01  8.6155230787812376e-01  8.8904011545277373e-01  9.1666206619597979e-01  9.4438505402162221e-01  9.7217560527343050e-01  1.0000000000000000e+00  </DataArray> 
</PointData> 
</Piece>
</UnstructuredGrid>
</VTKFile>