<?xml version="1.0"?>
<VTKFile type="UnstructuredGrid"  version="0.1"  >
<UnstructuredGrid>
<Piece  NumberOfPoints="101" NumberOfCells="100">
<Points>
<DataArray  type="Float64"  NumberOfComponents="3"  format="ascii">0 0 0  0.001 0 0  0.002 0 0  0.003 0 0  0.004 0 0  0.005 0 0  0.006000000000000001 0 0  0.007000000000000001 0 0  0.008 0 0  0.009000000000000001 0 0  0.01 0 0  0.011 0 0  0.012 0 0  0.013 0 0  0.014 0 0  0.015 0 0  0.016 0 0  0.017 0 0  0.018 0 0  0.019 0 0  0.02 0 0  0.021 0 0  0.022 0 0  0.023 0 0  0.024 0 0  0.025 0 0  0.026 0 0  0.027 0 0  0.028 0 0  0.029 0 0  0.03 0 0  0.031 0 0  0.032 0 0  0.033 0 0  0.034 0 0  0.035 0 0  0.036 0 0  0.03700000000000001 0 0  0.03800000000000001 0 0  0.03900000000000001 0 0  0.04 0 0  0.04100000000000001 0 0  0.042 0 0  0.043 0 0  0.044 0 0  0.045 0 0  0.04600000000000001 0 0  0.047 0 0  0.04800000000000001 0 0  0.049 0 0  0.05 0 0  0.051 0 0  0.052 0 0  0.05300000000000001 0 0  0.05400000000000001 0 0  0.055 0 0  0.05600000000000001 0 0  0.057 0 0  0.05800000000000001 0 0  0.059 0 0  0.06 0 0  0.06100000000000001 0 0  0.062 0 0  0.063 0 0  0.064 0 0  0.065 0 0  0.066 0 0  0.067 0 0  0.068 0 0  0.06900000000000001 0 0  0.07000000000000001 0 0  0.07100000000000001 0 0  0.07200000000000001 0 0  0.07300000000000001 0 0  0.07400000000000001 0 0  0.075 0 0  0.07600000000000001 0 0  0.077 0 0  0.07800000000000001 0 0  0.079 0 0  0.08 0 0  0.081 0 0  0.08200000000000002 0 0  0.083 0 0  0.08400000000000001 0 0  0.08500000000000001 0 0  0.08599999999999999 0 0  0.08700000000000001 0 0  0.08800000000000001 0 0  0.08900000000000001 0 0  0.09 0 0  0.091 0 0  0.09200000000000001 0 0  0.09300000000000001 0 0  0.094 0 0  0.095 0 0  0.09600000000000002 0 0  0.09700000000000002 0 0  0.098 0 0  0.099 0 0  0.1 0 0  </DataArray>
</Points>
<Cells>
<DataArray  type="UInt32"  Name="connectivity"  format="ascii">0 1  1 2  2 3  3 4  4 5  5 6  6 7  7 8  8 9  9 10  10 11  11 12  12 13  13 14  14 15  15 16  16 17  17 18  18 19  19 20  20 21  21 22  22 23  23 24  24 25  25 26  26 27  27 28  28 29  29 30  30 31  31 32  32 33  33 34  34 35  35 36  36 37  37 38  38 39  39 40  40 41  41 42  42 43  43 44  44 45  45 46  46 47  47 48  48 49  49 50  50 51  51 52  52 53  53 54  54 55  55 56  56 57  57 58  58 59  59 60  60 61  61 62  62 63  63 64  64 65  65 66  66 67  67 68  68 69  69 70  70 71  71 72  72 73  73 74  74 75  75 76  76 77  77 78  78 79  79 80  80 81  81 82  82 83  83 84  84 85  85 86  86 87  87 88  88 89  89 90  90 91  91 92  92 93  93 94  94 95  95 96  96 97  97 98  98 99  99 100  </DataArray>
<DataArray  type="UInt32"  Name="offsets"  format="ascii">2 4 6 8 10 12 14 16 18 20 22 24 26 28 30 32 34 36 38 40 42 44 46 48 50 52 54 56 58 60 62 64 66 68 70 72 74 76 78 80 82 84 86 88 90 92 94 96 98 100 102 104 106 108 110 112 114 116 118 120 122 124 126 128 130 132 134 136 138 140 142 144 146 148 150 152 154 156 158 160 162 164 166 168 170 172 174 176 178 180 182 184 186 188 190 192 194 196 198 200 </DataArray>
<DataArray  type="UInt8"  Name="types"  format="ascii">3 3 3 3 3 3 3 3 3 3 3 3 3 3 3 3 3 3 3 3 3 3 3 3 3 3 3 3 3 3 3 3 3 3 3 3 3 3 3 3 3 3 3 3 3 3 3 3 3 3 3 3 3 3 3 3 3 3 3 3 3 3 3 3 3 3 3 3 3 3 3 3 3 3 3 3 3 3 3 3 3 3 3 3 3 3 3 3 3 3 3 3 3 3 3 3 3 3 3 3 </DataArray>
</Cells>
<PointData  Scalars="f_14"> 
<DataArray  type="Float64"  Name="f_14"  format="ascii">1.3780350805109331e-07  1.4373631173020926e-07  1.6197983210953338e-07  1.9389747945642873e-07  2.4185661094571187e-07  3.0937598590596106e-07  4.0134226595225088e-07  5.2430602735327251e-07  6.8687132686957493e-07  9.0019688248637362e-07  1.1786315052940253e-06  1.5405116610796012e-06  2.0091550671804192e-06  2.6140911627229960e-06  3.3925772518854879e-06  4.3914582340959063e-06  5.6694382235653612e-06  7.2998441385680514e-06  9.3739746127580328e-06  1.2005142433935946e-05  1.5333535213247142e-05  1.9532037160324570e-05  2.4813174675427813e-05  3.1437369902692031e-05  3.9722709287972855e-05  5.0056458340332921e-05  6.2908578905031742e-05  7.8847530907971122e-05  9.8558666195766928e-05  1.2286554710624439e-04  1.5275454594893350e-04  1.8940310268557463e-04  2.3421203564547542e-04  2.8884231279355927e-04  3.5525669743193824e-04  4.3576668064842816e-04  5.3308510158213039e-04  6.5038483380259581e-04  7.9136387986743825e-04  9.6031716447881102e-04  1.1622152476773373e-03  1.4027900913669115e-03  1.6886279035071127e-03  2.0272689531611390e-03  2.4273140952304033e-03  2.8985375655973919e-03  3.4520054055696965e-03  4.1001986496921423e-03  4.8571401646882893e-03  5.7385237619141695e-03  6.7618439246430019e-03  7.9465241991734433e-03  9.3140420006759019e-03  1.0888047287457287e-02  1.2694472268597356e-02  1.4761629038343851e-02  1.7120291785784614e-02  1.9803760020392587e-02  2.2847899093819440e-02  2.6291154196782452e-02  3.0174533977974344e-02  3.4541559980110909e-02  3.9438178226205767e-02  4.4912629525369237e-02  5.1015275408664303e-02  5.7798377056531493e-02  6.5315825142226516e-02  7.3622819189951533e-02  8.2775495828055434e-02  9.2830506199540988e-02  1.0384454376324974e-01  1.1587382476493754e-01  1.2897352475983528e-01  1.4319717570563084e-01  1.5859602929243588e-01  1.7521839330691596e-01  1.9310894891203548e-01  2.1230805773114278e-01  2.3285106852430007e-01  2.5476763400507363e-01  2.7808104893824498e-01  3.0280762105607040e-01  3.2895608650943275e-01  3.5652708151128637e-01  3.8551268151937873e-01  4.1589601873542176e-01  4.4765098786747387e-01  4.8074204901700990e-01  5.1512413522504352e-01  5.5074267066302984e-01  5.8753370371124236e-01  6.2542415726371914e-01  6.6433219657403919e-01  7.0416771285440538e-01  7.4483291870955082e-01  7.8622304937702214e-01  8.2822716170741084e-01  8.7072902090251658e-01  9.1360806328442423e-01  9.5674042183870911e-01  1.0000000000000000e+00  </DataArray> 
</PointData> 
</Piece>
</UnstructuredGrid>
</VTKFile>