<?xml version="1.0"?>
<VTKFile type="UnstructuredGrid"  version="0.1"  >
<UnstructuredGrid>
<Piece  NumberOfPoints="101" NumberOfCells="100">
<Points>
<DataArray  type="Float64"  NumberOfComponents="3"  format="ascii">0 0 0  0.001 0 0  0.002 0 0  0.003 0 0  0.004 0 0  0.005 0 0  0.006000000000000001 0 0  0.007000000000000001 0 0  0.008 0 0  0.009000000000000001 0 0  0.01 0 0  0.011 0 0  0.012 0 0  0.013 0 0  0.014 0 0  0.015 0 0  0.016 0 0  0.017 0 0  0.018 0 0  0.019 0 0  0.02 0 0  0.021 0 0  0.022 0 0  0.023 0 0  0.024 0 0  0.025 0 0  0.026 0 0  0.027 0 0  0.028 0 0  0.029 0 0  0.03 0 0  0.031 0 0  0.032 0 0  0.033 0 0  0.034 0 0  0.035 0 0  0.036 0 0  0.03700000000000001 0 0  0.03800000000000001 0 0  0.03900000000000001 0 0  0.04 0 0  0.04100000000000001 0 0  0.042 0 0  0.043 0 0  0.044 0 0  0.045 0 0  0.04600000000000001 0 0  0.047 0 0  0.04800000000000001 0 0  0.049 0 0  0.05 0 0  0.051 0 0  0.052 0 0  0.05300000000000001 0 0  0.05400000000000001 0 0  0.055 0 0  0.05600000000000001 0 0  0.057 0 0  0.05800000000000001 0 0  0.059 0 0  0.06 0 0  0.06100000000000001 0 0  0.062 0 0  0.063 0 0  0.064 0 0  0.065 0 0  0.066 0 0  0.067 0 0  0.068 0 0  0.06900000000000001 0 0  0.07000000000000001 0 0  0.07100000000000001 0 0  0.07200000000000001 0 0  0.07300000000000001 0 0  0.07400000000000001 0 0  0.075 0 0  0.07600000000000001 0 0  0.077 0 0  0.07800000000000001 0 0  0.079 0 0  0.08 0 0  0.081 0 0  0.08200000000000002 0 0  0.083 0 0  0.08400000000000001 0 0  0.08500000000000001 0 0  0.08599999999999999 0 0  0.08700000000000001 0 0  0.08800000000000001 0 0  0.08900000000000001 0 0  0.09 0 0  0.091 0 0  0.09200000000000001 0 0  0.09300000000000001 0 0  0.094 0 0  0.095 0 0  0.09600000000000002 0 0  0.09700000000000002 0 0  0.098 0 0  0.099 0 0  0.1 0 0  </DataArray>
</Points>
<Cells>
<DataArray  type="UInt32"  Name="connectivity"  format="ascii">0 1  1 2  2 3  3 4  4 5  5 6  6 7  7 8  8 9  9 10  10 11  11 12  12 13  13 14  14 15  15 16  16 17  17 18  18 19  19 20  20 21  21 22  22 23  23 24  24 25  25 26  26 27  27 28  28 29  29 30  30 31  31 32  32 33  33 34  34 35  35 36  36 37  37 38  38 39  39 40  40 41  41 42  42 43  43 44  44 45  45 46  46 47  47 48  48 49  49 50  50 51  51 52  52 53  53 54  54 55  55 56  56 57  57 58  58 59  59 60  60 61  61 62  62 63  63 64  64 65  65 66  66 67  67 68  68 69  69 70  70 71  71 72  72 73  73 74  74 75  75 76  76 77  77 78  78 79  79 80  80 81  81 82  82 83  83 84  84 85  85 86  86 87  87 88  88 89  89 90  90 91  91 92  92 93  93 94  94 95  95 96  96 97  97 98  98 99  99 100  </DataArray>
<DataArray  type="UInt32"  Name="offsets"  format="ascii">2 4 6 8 10 12 14 16 18 20 22 24 26 28 30 32 34 36 38 40 42 44 46 48 50 52 54 56 58 60 62 64 66 68 70 72 74 76 78 80 82 84 86 88 90 92 94 96 98 100 102 104 106 108 110 112 114 116 118 120 122 124 126 128 130 132 134 136 138 140 142 144 146 148 150 152 154 156 158 160 162 164 166 168 170 172 174 176 178 180 182 184 186 188 190 192 194 196 198 200 </DataArray>
<DataArray  type="UInt8"  Name="types"  format="ascii">3 3 3 3 3 3 3 3 3 3 3 3 3 3 3 3 3 3 3 3 3 3 3 3 3 3 3 3 3 3 3 3 3 3 3 3 3 3 3 3 3 3 3 3 3 3 3 3 3 3 3 3 3 3 3 3 3 3 3 3 3 3 3 3 3 3 3 3 3 3 3 3 3 3 3 3 3 3 3 3 3 3 3 3 3 3 3 3 3 3 3 3 3 3 3 3 3 3 3 3 </DataArray>
</Cells>
<PointData  Scalars="f_14"> 
<DataArray  type="Float64"  Name="f_14"  format="ascii">1.1659515412846556e-30  1.9647666848774169e-30  5.4343681202609940e-30  1.6206269027249490e-29  4.8524105534697068e-29  1.4467804344639871e-28  4.2914331334271454e-28  1.2661401866027044e-27  3.7153709989355929e-27  1.0842466471776544e-26  3.1464717855672747e-26  9.0793172591877220e-26  2.6048290615355053e-25  7.4295818945245289e-25  2.1065432159390922e-24  5.9368801485592004e-24  1.6629854827963845e-23  4.6293557192163665e-23  1.2806000117896358e-22  3.5198609837235073e-22  9.6120065317317373e-22  2.6075693669482423e-21  7.0266275114323322e-21  1.8806261210892657e-20  4.9986982916943455e-20  1.3193620865009061e-19  3.4576147212496666e-19  8.9959461520589333e-19  2.3234112368976650e-18  5.9561395299979853e-18  1.5153499434435124e-17  3.8257736373332263e-17  9.5836739586526892e-17  2.3817632595984900e-16  5.8717226843658006e-16  1.4357494450974855e-15  3.4816327948142753e-15  8.3718741444658790e-15  1.9959115906310034e-14  4.7171696705992714e-14  1.1050584292396043e-13  2.5656284286916402e-13  5.9026571904911083e-13  1.3455085543946894e-12  3.0384325889409368e-12  6.7963459762784277e-12  1.5055734684949330e-11  3.3026785436307898e-11  7.1730730938721668e-11  1.5422508179743695e-10  3.2820960695574091e-10  6.9124084097906876e-10  1.4405363617077739e-09  2.9700952823579370e-09  6.0576221626821345e-09  1.2219508619249539e-08  2.4375809780419727e-08  4.8078625532278687e-08  9.3749006662380370e-08  1.8069120686319176e-07  3.4418929413324092e-07  6.4786166964355038e-07  1.2048329011198570e-06  2.2134336552640753e-06  4.0164057038716522e-06  7.1974230909940859e-06  1.2735700592402374e-05  2.2249182189264943e-05  3.8369927785970234e-05  6.5312360093384948e-05  1.0971616243665650e-04  1.8187033456123014e-04  2.9745164220032971e-04  4.7993630850271007e-04  7.6386314491482302e-04  1.1991319192065561e-03  1.8565027874388549e-03  2.8344094763290508e-03  4.2670985544322991e-03  6.3339493707867461e-03  9.2696089074385171e-03  1.3374296653289736e-02  1.9023313311946479e-02  2.6674456323512008e-02  3.6871754377948145e-02  5.0243746458011426e-02  6.7494520433854774e-02  8.9385960282153912e-02  1.1671017943622590e-01  1.5025195509633155e-01  1.9074208891850442e-01  2.3880390883423017e-01  2.9489644270898446e-01  3.5925894144647286e-01  4.3186219474475174e-01  5.1237227511210170e-01  6.0013183397398884e-01  6.9416282339029911e-01  7.9319261215700443e-01  8.9570310925532104e-01  1.0000000000000000e+00  </DataArray> 
</PointData> 
</Piece>
</UnstructuredGrid>
</VTKFile>