<?xml version="1.0"?>
<VTKFile type="UnstructuredGrid"  version="0.1"  >
<UnstructuredGrid>
<Piece  NumberOfPoints="101" NumberOfCells="100">
<Points>
<DataArray  type="Float64"  NumberOfComponents="3"  format="ascii">0 0 0  0.001 0 0  0.002 0 0  0.003 0 0  0.004 0 0  0.005 0 0  0.006000000000000001 0 0  0.007000000000000001 0 0  0.008 0 0  0.009000000000000001 0 0  0.01 0 0  0.011 0 0  0.012 0 0  0.013 0 0  0.014 0 0  0.015 0 0  0.016 0 0  0.017 0 0  0.018 0 0  0.019 0 0  0.02 0 0  0.021 0 0  0.022 0 0  0.023 0 0  0.024 0 0  0.025 0 0  0.026 0 0  0.027 0 0  0.028 0 0  0.029 0 0  0.03 0 0  0.031 0 0  0.032 0 0  0.033 0 0  0.034 0 0  0.035 0 0  0.036 0 0  0.03700000000000001 0 0  0.03800000000000001 0 0  0.03900000000000001 0 0  0.04 0 0  0.04100000000000001 0 0  0.042 0 0  0.043 0 0  0.044 0 0  0.045 0 0  0.04600000000000001 0 0  0.047 0 0  0.04800000000000001 0 0  0.049 0 0  0.05 0 0  0.051 0 0  0.052 0 0  0.05300000000000001 0 0  0.05400000000000001 0 0  0.055 0 0  0.05600000000000001 0 0  0.057 0 0  0.05800000000000001 0 0  0.059 0 0  0.06 0 0  0.06100000000000001 0 0  0.062 0 0  0.063 0 0  0.064 0 0  0.065 0 0  0.066 0 0  0.067 0 0  0.068 0 0  0.06900000000000001 0 0  0.07000000000000001 0 0  0.07100000000000001 0 0  0.07200000000000001 0 0  0.07300000000000001 0 0  0.07400000000000001 0 0  0.075 0 0  0.07600000000000001 0 0  0.077 0 0  0.07800000000000001 0 0  0.079 0 0  0.08 0 0  0.081 0 0  0.08200000000000002 0 0  0.083 0 0  0.08400000000000001 0 0  0.08500000000000001 0 0  0.08599999999999999 0 0  0.08700000000000001 0 0  0.08800000000000001 0 0  0.08900000000000001 0 0  0.09 0 0  0.091 0 0  0.09200000000000001 0 0  0.09300000000000001 0 0  0.094 0 0  0.095 0 0  0.09600000000000002 0 0  0.09700000000000002 0 0  0.098 0 0  0.099 0 0  0.1 0 0  </DataArray>
</Points>
<Cells>
<DataArray  type="UInt32"  Name="connectivity"  format="ascii">0 1  1 2  2 3  3 4  4 5  5 6  6 7  7 8  8 9  9 10  10 11  11 12  12 13  13 14  14 15  15 16  16 17  17 18  18 19  19 20  20 21  21 22  22 23  23 24  24 25  25 26  26 27  27 28  28 29  29 30  30 31  31 32  32 33  33 34  34 35  35 36  36 37  37 38  38 39  39 40  40 41  41 42  42 43  43 44  44 45  45 46  46 47  47 48  48 49  49 50  50 51  51 52  52 53  53 54  54 55  55 56  56 57  57 58  58 59  59 60  60 61  61 62  62 63  63 64  64 65  65 66  66 67  67 68  68 69  69 70  70 71  71 72  72 73  73 74  74 75  75 76  76 77  77 78  78 79  79 80  80 81  81 82  82 83  83 84  84 85  85 86  86 87  87 88  88 89  89 90  90 91  91 92  92 93  93 94  94 95  95 96  96 97  97 98  98 99  99 100  </DataArray>
<DataArray  type="UInt32"  Name="offsets"  format="ascii">2 4 6 8 10 12 14 16 18 20 22 24 26 28 30 32 34 36 38 40 42 44 46 48 50 52 54 56 58 60 62 64 66 68 70 72 74 76 78 80 82 84 86 88 90 92 94 96 98 100 102 104 106 108 110 112 114 116 118 120 122 124 126 128 130 132 134 136 138 140 142 144 146 148 150 152 154 156 158 160 162 164 166 168 170 172 174 176 178 180 182 184 186 188 190 192 194 196 198 200 </DataArray>
<DataArray  type="UInt8"  Name="types"  format="ascii">3 3 3 3 3 3 3 3 3 3 3 3 3 3 3 3 3 3 3 3 3 3 3 3 3 3 3 3 3 3 3 3 3 3 3 3 3 3 3 3 3 3 3 3 3 3 3 3 3 3 3 3 3 3 3 3 3 3 3 3 3 3 3 3 3 3 3 3 3 3 3 3 3 3 3 3 3 3 3 3 3 3 3 3 3 3 3 3 3 3 3 3 3 3 3 3 3 3 3 3 </DataArray>
</Cells>
<PointData  Scalars="f_14"> 
<DataArray  type="Float64"  Name="f_14"  format="ascii">4.2558114450066205e-09  4.5303387921610967e-09  5.3856469627139424e-09  6.9201272154182389e-09  9.3087501161286411e-09  1.2820526556072968e-08  1.7844988551745531e-08  2.4929888899863523e-08  3.4833189472784809e-08  4.8593475572291643e-08  6.7624259165616021e-08  9.3839288499538273e-08  1.2981804988911756e-07  1.7902322895429880e-07  2.4608511031875893e-07  3.3717187375317472e-07  4.6046964998497188e-07  6.2680221398696931e-07  8.5042752612179513e-07  1.1500572170741954e-06  1.5501558123655763e-06  2.0825892926632589e-06  2.7887077952288688e-06  3.7219652046472061e-06  4.9511993914996471e-06  6.5647212683096198e-06  8.6753889593196366e-06  1.1426875506478105e-05  1.5001374883086919e-05  1.9629031798393672e-05  2.5599425872485663e-05  3.3275490106699002e-05  4.3110296837336421e-05  5.5667200961362996e-05  7.1643889288270022e-05  9.1900945182261652e-05  1.1749559759575764e-04  1.4972138109643537e-04  1.9015448600717520e-04  2.4070762224613455e-04  3.0369225327485074e-04  3.8189007360870319e-04  4.7863459998820877e-04  5.9790371748050502e-04  7.4442396205652074e-04  9.2378722493091290e-04  1.1425804254744311e-03  1.4085285133017275e-03  1.7306509211296836e-03  2.1194312938625235e-03  2.5869999628492981e-03  3.1473282155943809e-03  3.8164329304540803e-03  4.6125896053396077e-03  5.5565512141153069e-03  6.6717696821500926e-03  7.9846160945266295e-03  9.5245950513702330e-03  1.1324547882806660e-02  1.3420838752862957e-02  1.5853517042142249e-02  1.8666448831162679e-02  2.1907409839987249e-02  2.5628131846814485e-02  2.9884294440690622e-02  3.4735453992917276e-02  4.0244901987520246e-02  4.6479445359305066e-02  5.3509102269523080e-02  6.1406707818412808e-02  7.0247425557209461e-02  8.0108162316551698e-02  9.1066885799917827e-02  1.0320184657474754e-01  1.1659070849333651e-01  1.3130959414163113e-01  1.4743205458651365e-01  1.6502797540048170e-01  1.8416243360747669e-01  2.0489452272894204e-01  2.2727616542502449e-01  2.5135093523104035e-01  2.7715291049537272e-01  3.0470558474911413e-01  3.3402085830708916e-01  3.6509813585451228e-01  3.9792355407021746e-01  4.3246936195206348e-01  4.6869347444038989e-01  5.0653921720192896e-01  5.4593527708360023e-01  5.8679586884095847e-01  6.2902112437941748e-01  6.7249770602740355e-01  7.1709964041548369e-01  7.6268936450309521e-01  8.0911897032147284e-01  8.5623163023715843e-01  9.0386318013172018e-01  9.5184383397838124e-01  1.0000000000000000e+00  </DataArray> 
</PointData> 
</Piece>
</UnstructuredGrid>
</VTKFile>