<?xml version="1.0"?>
<VTKFile type="UnstructuredGrid"  version="0.1"  >
<UnstructuredGrid>
<Piece  NumberOfPoints="101" NumberOfCells="100">
<Points>
<DataArray  type="Float64"  NumberOfComponents="3"  format="ascii">0 0 0  0.001 0 0  0.002 0 0  0.003 0 0  0.004 0 0  0.005 0 0  0.006000000000000001 0 0  0.007000000000000001 0 0  0.008 0 0  0.009000000000000001 0 0  0.01 0 0  0.011 0 0  0.012 0 0  0.013 0 0  0.014 0 0  0.015 0 0  0.016 0 0  0.017 0 0  0.018 0 0  0.019 0 0  0.02 0 0  0.021 0 0  0.022 0 0  0.023 0 0  0.024 0 0  0.025 0 0  0.026 0 0  0.027 0 0  0.028 0 0  0.029 0 0  0.03 0 0  0.031 0 0  0.032 0 0  0.033 0 0  0.034 0 0  0.035 0 0  0.036 0 0  0.03700000000000001 0 0  0.03800000000000001 0 0  0.03900000000000001 0 0  0.04 0 0  0.04100000000000001 0 0  0.042 0 0  0.043 0 0  0.044 0 0  0.045 0 0  0.04600000000000001 0 0  0.047 0 0  0.04800000000000001 0 0  0.049 0 0  0.05 0 0  0.051 0 0  0.052 0 0  0.05300000000000001 0 0  0.05400000000000001 0 0  0.055 0 0  0.05600000000000001 0 0  0.057 0 0  0.05800000000000001 0 0  0.059 0 0  0.06 0 0  0.06100000000000001 0 0  0.062 0 0  0.063 0 0  0.064 0 0  0.065 0 0  0.066 0 0  0.067 0 0  0.068 0 0  0.06900000000000001 0 0  0.07000000000000001 0 0  0.07100000000000001 0 0  0.07200000000000001 0 0  0.07300000000000001 0 0  0.07400000000000001 0 0  0.075 0 0  0.07600000000000001 0 0  0.077 0 0  0.07800000000000001 0 0  0.079 0 0  0.08 0 0  0.081 0 0  0.08200000000000002 0 0  0.083 0 0  0.08400000000000001 0 0  0.08500000000000001 0 0  0.08599999999999999 0 0  0.08700000000000001 0 0  0.08800000000000001 0 0  0.08900000000000001 0 0  0.09 0 0  0.091 0 0  0.09200000000000001 0 0  0.09300000000000001 0 0  0.094 0 0  0.095 0 0  0.09600000000000002 0 0  0.09700000000000002 0 0  0.098 0 0  0.099 0 0  0.1 0 0  </DataArray>
</Points>
<Cells>
<DataArray  type="UInt32"  Name="connectivity"  format="ascii">0 1  1 2  2 3  3 4  4 5  5 6  6 7  7 8  8 9  9 10  10 11  11 12  12 13  13 14  14 15  15 16  16 17  17 18  18 19  19 20  20 21  21 22  22 23  23 24  24 25  25 26  26 27  27 28  28 29  29 30  30 31  31 32  32 33  33 34  34 35  35 36  36 37  37 38  38 39  39 40  40 41  41 42  42 43  43 44  44 45  45 46  46 47  47 48  48 49  49 50  50 51  51 52  52 53  53 54  54 55  55 56  56 57  57 58  58 59  59 60  60 61  61 62  62 63  63 64  64 65  65 66  66 67  67 68  68 69  69 70  70 71  71 72  72 73  73 74  74 75  75 76  76 77  77 78  78 79  79 80  80 81  81 82  82 83  83 84  84 85  85 86  86 87  87 88  88 89  89 90  90 91  91 92  92 93  93 94  94 95  95 96  96 97  97 98  98 99  99 100  </DataArray>
<DataArray  type="UInt32"  Name="offsets"  format="ascii">2 4 6 8 10 12 14 16 18 20 22 24 26 28 30 32 34 36 38 40 42 44 46 48 50 52 54 56 58 60 62 64 66 68 70 72 74 76 78 80 82 84 86 88 90 92 94 96 98 100 102 104 106 108 110 112 114 116 118 120 122 124 126 128 130 132 134 136 138 140 142 144 146 148 150 152 154 156 158 160 162 164 166 168 170 172 174 176 178 180 182 184 186 188 190 192 194 196 198 200 </DataArray>
<DataArray  type="UInt8"  Name="types"  format="ascii">3 3 3 3 3 3 3 3 3 3 3 3 3 3 3 3 3 3 3 3 3 3 3 3 3 3 3 3 3 3 3 3 3 3 3 3 3 3 3 3 3 3 3 3 3 3 3 3 3 3 3 3 3 3 3 3 3 3 3 3 3 3 3 3 3 3 3 3 3 3 3 3 3 3 3 3 3 3 3 3 3 3 3 3 3 3 3 3 3 3 3 3 3 3 3 3 3 3 3 3 </DataArray>
</Cells>
<PointData  Scalars="f_14"> 
<DataArray  type="Float64"  Name="f_14"  format="ascii">1.7804764203633292e-04  1.8026090449685012e-04  1.8694258853156902e-04  1.9821889079858361e-04  2.1430182950268948e-04  2.3549178506916953e-04  2.6218106693373758e-04  2.9485851588236737e-04  3.3411515348049086e-04  3.8065089179525484e-04  4.3528231774001897e-04  4.9895156686081044e-04  5.7273630114518172e-04  6.5786080437200067e-04  7.5570820654605859e-04  8.6783384598765508e-04  9.9597977359294006e-04  1.1420903985702949e-03  1.3083292685234932e-03  1.4970969690349786e-03  1.7110501188544803e-03  1.9531214263842445e-03  2.2265407613520894e-03  2.5348571823738753e-03  2.8819618465432848e-03  3.2721117112856630e-03  3.7099539215337007e-03  4.2005507569106973e-03  4.7494049941535464e-03  5.3624855196123151e-03  6.0462530054958196e-03  6.8076854417930431e-03  7.6543032937193790e-03  8.5941940323769270e-03  9.6360357643712809e-03  1.0789119664715827e-02  1.2063370896827118e-02  1.3469367684146222e-02  1.5018358180306595e-02  1.6722274769223160e-02  1.8593745413426607e-02  2.0646101658846467e-02  2.2893382897491436e-02  2.5350336486518511e-02  2.8032413323438296e-02  3.0955758483074112e-02  3.4137196532742109e-02  3.7594211158278934e-02  4.1344918755301246e-02  4.5408035667657075e-02  4.9802838788599285e-02  5.4549119279854556e-02  5.9667129209503220e-02  6.5177520961338983e-02  7.1101279325983160e-02  7.7459646247214478e-02  8.4274038265376688e-02  9.1565956772867330e-02  9.9356891274023071e-02  1.0766821592250519e-01  1.1652107969279712e-01  1.2593629062775313e-01  1.3593419469034790e-01  1.4653454983381672e-01  1.5775639598913821e-01  1.6961792175115459e-01  1.8213632862332632e-01  1.9532769375498132e-01  2.0920683217270733e-01  2.2378715956804787e-01  2.3908055675572576e-01  2.5509723695911357e-01  2.7184561711156374e-01  2.8933219438255942e-01  3.0756142914561763e-01  3.2653563559979626e-01  3.4625488123797421e-01  3.6671689632242377e-01  3.8791699448141748e-01  4.0984800547965483e-01  4.3250022114045411e-01  4.5586135530924277e-01  4.7991651864661222e-01  5.0464820892582407e-01  5.3003631738524593e-01  5.5605815155191851e-01  5.8268847480974317e-01  6.0989956283614211e-01  6.3766127687617324e-01  6.6594115366481965e-01  6.9470451164833957e-01  7.2391457299619744e-01  7.5353260073813721e-01  7.8351805020843801e-01  8.1382873383325727e-01  8.4442099815917171e-01  8.7524991189333712e-01  9.0626946360991667e-01  9.3743276767501571e-01  9.6869227685480963e-01  1.0000000000000000e+00  </DataArray> 
</PointData> 
</Piece>
</UnstructuredGrid>
</VTKFile>