<?xml version="1.0"?>
<VTKFile type="UnstructuredGrid"  version="0.1"  >
<UnstructuredGrid>
<Piece  NumberOfPoints="101" NumberOfCells="100">
<Points>
<DataArray  type="Float64"  NumberOfComponents="3"  format="ascii">0 0 0  0.001 0 0  0.002 0 0  0.003 0 0  0.004 0 0  0.005 0 0  0.006000000000000001 0 0  0.007000000000000001 0 0  0.008 0 0  0.009000000000000001 0 0  0.01 0 0  0.011 0 0  0.012 0 0  0.013 0 0  0.014 0 0  0.015 0 0  0.016 0 0  0.017 0 0  0.018 0 0  0.019 0 0  0.02 0 0  0.021 0 0  0.022 0 0  0.023 0 0  0.024 0 0  0.025 0 0  0.026 0 0  0.027 0 0  0.028 0 0  0.029 0 0  0.03 0 0  0.031 0 0  0.032 0 0  0.033 0 0  0.034 0 0  0.035 0 0  0.036 0 0  0.03700000000000001 0 0  0.03800000000000001 0 0  0.03900000000000001 0 0  0.04 0 0  0.04100000000000001 0 0  0.042 0 0  0.043 0 0  0.044 0 0  0.045 0 0  0.04600000000000001 0 0  0.047 0 0  0.04800000000000001 0 0  0.049 0 0  0.05 0 0  0.051 0 0  0.052 0 0  0.05300000000000001 0 0  0.05400000000000001 0 0  0.055 0 0  0.05600000000000001 0 0  0.057 0 0  0.05800000000000001 0 0  0.059 0 0  0.06 0 0  0.06100000000000001 0 0  0.062 0 0  0.063 0 0  0.064 0 0  0.065 0 0  0.066 0 0  0.067 0 0  0.068 0 0  0.06900000000000001 0 0  0.07000000000000001 0 0  0.07100000000000001 0 0  0.07200000000000001 0 0  0.07300000000000001 0 0  0.07400000000000001 0 0  0.075 0 0  0.07600000000000001 0 0  0.077 0 0  0.07800000000000001 0 0  0.079 0 0  0.08 0 0  0.081 0 0  0.08200000000000002 0 0  0.083 0 0  0.08400000000000001 0 0  0.08500000000000001 0 0  0.08599999999999999 0 0  0.08700000000000001 0 0  0.08800000000000001 0 0  0.08900000000000001 0 0  0.09 0 0  0.091 0 0  0.09200000000000001 0 0  0.09300000000000001 0 0  0.094 0 0  0.095 0 0  0.09600000000000002 0 0  0.09700000000000002 0 0  0.098 0 0  0.099 0 0  0.1 0 0  </DataArray>
</Points>
<Cells>
<DataArray  type="UInt32"  Name="connectivity"  format="ascii">0 1  1 2  2 3  3 4  4 5  5 6  6 7  7 8  8 9  9 10  10 11  11 12  12 13  13 14  14 15  15 16  16 17  17 18  18 19  19 20  20 21  21 22  22 23  23 24  24 25  25 26  26 27  27 28  28 29  29 30  30 31  31 32  32 33  33 34  34 35  35 36  36 37  37 38  38 39  39 40  40 41  41 42  42 43  43 44  44 45  45 46  46 47  47 48  48 49  49 50  50 51  51 52  52 53  53 54  54 55  55 56  56 57  57 58  58 59  59 60  60 61  61 62  62 63  63 64  64 65  65 66  66 67  67 68  68 69  69 70  70 71  71 72  72 73  73 74  74 75  75 76  76 77  77 78  78 79  79 80  80 81  81 82  82 83  83 84  84 85  85 86  86 87  87 88  88 89  89 90  90 91  91 92  92 93  93 94  94 95  95 96  96 97  97 98  98 99  99 100  </DataArray>
<DataArray  type="UInt32"  Name="offsets"  format="ascii">2 4 6 8 10 12 14 16 18 20 22 24 26 28 30 32 34 36 38 40 42 44 46 48 50 52 54 56 58 60 62 64 66 68 70 72 74 76 78 80 82 84 86 88 90 92 94 96 98 100 102 104 106 108 110 112 114 116 118 120 122 124 126 128 130 132 134 136 138 140 142 144 146 148 150 152 154 156 158 160 162 164 166 168 170 172 174 176 178 180 182 184 186 188 190 192 194 196 198 200 </DataArray>
<DataArray  type="UInt8"  Name="types"  format="ascii">3 3 3 3 3 3 3 3 3 3 3 3 3 3 3 3 3 3 3 3 3 3 3 3 3 3 3 3 3 3 3 3 3 3 3 3 3 3 3 3 3 3 3 3 3 3 3 3 3 3 3 3 3 3 3 3 3 3 3 3 3 3 3 3 3 3 3 3 3 3 3 3 3 3 3 3 3 3 3 3 3 3 3 3 3 3 3 3 3 3 3 3 3 3 3 3 3 3 3 3 </DataArray>
</Cells>
<PointData  Scalars="f_14"> 
<DataArray  type="Float64"  Name="f_14"  format="ascii">6.0220010348271525e-06  6.1700588518382504e-06  6.6202695089188358e-06  7.3909348649210163e-06  8.5131960779209130e-06  1.0032004451430892e-05  1.2007508206737454e-05  1.4516882940020252e-05  1.7656641686874167e-05  2.1545468835511068e-05  2.6327630615260308e-05  3.2177023537402903e-05  3.9301930963029379e-05  4.7950566880820050e-05  5.8417494938244719e-05  7.1051019700448881e-05  8.6261655903286402e-05  1.0453178998298928e-04  1.2642665623637745e-04  1.5260675739127208e-04  1.8384186591207906e-04  2.2102674776114023e-04  2.6519875427889332e-04  3.1755742999832899e-04  3.7948628420354395e-04  4.5257687148211856e-04  5.3865532098665845e-04  6.3981144517445514e-04  7.5843054598785057e-04  8.9722801932223004e-04  1.0592868367638299e-03  1.2480979565476751e-03  1.4676036831047074e-03  1.7222439561056066e-03  2.0170055053038839e-03  2.3574737565556269e-03  2.7498873170752197e-03  3.2011948043264992e-03  3.7191137131404785e-03  4.3121909400478864e-03  4.9898645029485657e-03  5.7625259088339301e-03  6.6415825332610083e-03  7.6395192837889958e-03  8.7699587269896261e-03  1.0047718766508828e-02  1.1488866869775625e-02  1.3110769755311126e-02  1.4932137373353627e-02  1.6973059942000976e-02  1.9255036741721111e-02  2.1800995325406920e-02  2.4635299771703117e-02  2.7783746598624322e-02  3.1273546964949307e-02  3.5133293820790217e-02  3.9392912728147642e-02  4.4083595158922559e-02  4.9237713193144440e-02  5.4888714685015369e-02  6.1070998139191056e-02  6.7819766744342563e-02  7.5170861244686873e-02  8.3160571591352372e-02  9.1825427601972695e-02  1.0120196916586989e-01  1.1132649685993845e-01  1.2223480418253055e-01  1.3396189296423275e-01  1.4654167386977035e-01  1.6000665425819463e-01  1.7438761601236979e-01  1.8971328627663567e-01  2.0601000434623451e-01  2.2330138822647730e-01  2.4160800461662080e-01  2.6094704626625781e-01  2.8133202079436370e-01  3.0277245514734213e-01  3.2527361989751802e-01  3.4883627754371965e-01  3.7345645886792206e-01  3.9912527122491959e-01  4.2582874239527818e-01  4.5354770331659433e-01  4.8225771262685529e-01  5.1192902551052910e-01  5.4252660883829285e-01  5.7401020404183367e-01  6.0633443857400715e-01  6.3944898618089119e-01  6.7329877556614048e-01  7.0782424637031149e-01  7.4296165072997844e-01  7.7864339803512794e-01  8.1479843988031464e-01  8.5135269161688121e-01  8.8822948637127042e-01  9.2535005690840766e-01  9.6263404029864030e-01  1.0000000000000000e+00  </DataArray> 
</PointData> 
</Piece>
</UnstructuredGrid>
</VTKFile>