<?xml version="1.0"?>
<VTKFile type="UnstructuredGrid"  version="0.1"  >
<UnstructuredGrid>
<Piece  NumberOfPoints="101" NumberOfCells="100">
<Points>
<DataArray  type="Float64"  NumberOfComponents="3"  format="ascii">0 0 0  0.001 0 0  0.002 0 0  0.003 0 0  0.004 0 0  0.005 0 0  0.006000000000000001 0 0  0.007000000000000001 0 0  0.008 0 0  0.009000000000000001 0 0  0.01 0 0  0.011 0 0  0.012 0 0  0.013 0 0  0.014 0 0  0.015 0 0  0.016 0 0  0.017 0 0  0.018 0 0  0.019 0 0  0.02 0 0  0.021 0 0  0.022 0 0  0.023 0 0  0.024 0 0  0.025 0 0  0.026 0 0  0.027 0 0  0.028 0 0  0.029 0 0  0.03 0 0  0.031 0 0  0.032 0 0  0.033 0 0  0.034 0 0  0.035 0 0  0.036 0 0  0.03700000000000001 0 0  0.03800000000000001 0 0  0.03900000000000001 0 0  0.04 0 0  0.04100000000000001 0 0  0.042 0 0  0.043 0 0  0.044 0 0  0.045 0 0  0.04600000000000001 0 0  0.047 0 0  0.04800000000000001 0 0  0.049 0 0  0.05 0 0  0.051 0 0  0.052 0 0  0.05300000000000001 0 0  0.05400000000000001 0 0  0.055 0 0  0.05600000000000001 0 0  0.057 0 0  0.05800000000000001 0 0  0.059 0 0  0.06 0 0  0.06100000000000001 0 0  0.062 0 0  0.063 0 0  0.064 0 0  0.065 0 0  0.066 0 0  0.067 0 0  0.068 0 0  0.06900000000000001 0 0  0.07000000000000001 0 0  0.07100000000000001 0 0  0.07200000000000001 0 0  0.07300000000000001 0 0  0.07400000000000001 0 0  0.075 0 0  0.07600000000000001 0 0  0.077 0 0  0.07800000000000001 0 0  0.079 0 0  0.08 0 0  0.081 0 0  0.08200000000000002 0 0  0.083 0 0  0.08400000000000001 0 0  0.08500000000000001 0 0  0.08599999999999999 0 0  0.08700000000000001 0 0  0.08800000000000001 0 0  0.08900000000000001 0 0  0.09 0 0  0.091 0 0  0.09200000000000001 0 0  0.09300000000000001 0 0  0.094 0 0  0.095 0 0  0.09600000000000002 0 0  0.09700000000000002 0 0  0.098 0 0  0.099 0 0  0.1 0 0  </DataArray>
</Points>
<Cells>
<DataArray  type="UInt32"  Name="connectivity"  format="ascii">0 1  1 2  2 3  3 4  4 5  5 6  6 7  7 8  8 9  9 10  10 11  11 12  12 13  13 14  14 15  15 16  16 17  17 18  18 19  19 20  20 21  21 22  22 23  23 24  24 25  25 26  26 27  27 28  28 29  29 30  30 31  31 32  32 33  33 34  34 35  35 36  36 37  37 38  38 39  39 40  40 41  41 42  42 43  43 44  44 45  45 46  46 47  47 48  48 49  49 50  50 51  51 52  52 53  53 54  54 55  55 56  56 57  57 58  58 59  59 60  60 61  61 62  62 63  63 64  64 65  65 66  66 67  67 68  68 69  69 70  70 71  71 72  72 73  73 74  74 75  75 76  76 77  77 78  78 79  79 80  80 81  81 82  82 83  83 84  84 85  85 86  86 87  87 88  88 89  89 90  90 91  91 92  92 93  93 94  94 95  95 96  96 97  97 98  98 99  99 100  </DataArray>
<DataArray  type="UInt32"  Name="offsets"  format="ascii">2 4 6 8 10 12 14 16 18 20 22 24 26 28 30 32 34 36 38 40 42 44 46 48 50 52 54 56 58 60 62 64 66 68 70 72 74 76 78 80 82 84 86 88 90 92 94 96 98 100 102 104 106 108 110 112 114 116 118 120 122 124 126 128 130 132 134 136 138 140 142 144 146 148 150 152 154 156 158 160 162 164 166 168 170 172 174 176 178 180 182 184 186 188 190 192 194 196 198 200 </DataArray>
<DataArray  type="UInt8"  Name="types"  format="ascii">3 3 3 3 3 3 3 3 3 3 3 3 3 3 3 3 3 3 3 3 3 3 3 3 3 3 3 3 3 3 3 3 3 3 3 3 3 3 3 3 3 3 3 3 3 3 3 3 3 3 3 3 3 3 3 3 3 3 3 3 3 3 3 3 3 3 3 3 3 3 3 3 3 3 3 3 3 3 3 3 3 3 3 3 3 3 3 3 3 3 3 3 3 3 3 3 3 3 3 3 </DataArray>
</Cells>
<PointData  Scalars="f_14"> 
<DataArray  type="Float64"  Name="f_14"  format="ascii">3.9878189479085563e-04  4.0283182404124256e-04  4.1504223498925837e-04  4.3559552500937955e-04  4.6479744878373091e-04  5.0307975607104824e-04  5.5100388279606238e-04  6.0926569332079238e-04  6.7870127064940781e-04  7.6029374983986717e-04  8.5518118797272950e-04  9.6466546158848095e-04  1.0902221794821831e-03  1.2335115950764775e-03  1.3963904982256321e-03  1.5809250611863741e-03  1.7894046075860117e-03  2.0243562664944994e-03  2.2885604661446101e-03  2.5850672134348084e-03  2.9172130960966208e-03  3.2886389343299185e-03  3.7033079978373651e-03  4.1655246925709792e-03  4.6799536092028624e-03  5.2516388124293264e-03  5.8860232368112067e-03  6.5889680410590335e-03  7.3667717586242349e-03  8.2261890683087441e-03  9.1744489945252694e-03  1.0219272333015787e-02  1.1368888084469576e-02  1.2632048665792440e-02  1.4018043656995705e-02  1.5536711831040285e-02  1.7198451204737657e-02  1.9014226841232908e-02  2.0995576128934809e-02  2.3154611258273273e-02  2.5504018616609843e-02  2.8057054823248613e-02  3.0827539131025691e-02  3.3829841928613040e-02  3.7078869088647284e-02  4.0590041921258278e-02  4.4379272510658214e-02  4.8462934234258744e-02  5.2857827289377129e-02  5.7581139081976006e-02  6.2650399365036025e-02  6.8083430050984328e-02  7.3898289662971878e-02  8.0113212433496811e-02  8.6746542105665111e-02  9.3816660541945748e-02  1.0134191129724393e-01  1.0934051836705271e-01  1.1783050037687239e-01  1.2682958053545801e-01  1.3635509273120830e-01  1.4642388420748942e-01  1.5705221530826194e-01  1.6825565683933799e-01  1.8004898564223515e-01  1.9244607902619612e-01  2.0545980874877634e-01  2.1910193527575428e-01  2.3338300308629631e-01  2.4831223781863951e-01  2.6389744607441568e-01  2.8014491871555830e-01  2.9705933849599797e-01  3.1464369287061678e-01  3.3289919281585728e-01  3.5182519847968180e-01  3.7141915245310758e-01  3.9167652142121862e-01  4.1259074690846320e-01  4.3415320578128197e-01  4.5635318111105361e-01  4.7917784393227197e-01  5.0261224635539858e-01  5.2663932641150102e-01  5.5123992491737395e-01  5.7639281455612845e-01  6.0207474127017591e-01  6.2826047796208129e-01  6.5492289039500273e-01  6.8203301507948366e-01  7.0956014882833585e-01  7.3747194955748496e-01  7.6573454780906813e-01  7.9431266837500436e-01  8.2316976130581254e-01  8.5226814150176589e-01  8.8156913600258680e-01  9.1103323801879676e-01  9.4062026668340926e-01  9.7028953144770280e-01  1.0000000000000000e+00  </DataArray> 
</PointData> 
</Piece>
</UnstructuredGrid>
</VTKFile>