<?xml version="1.0"?>
<VTKFile type="UnstructuredGrid"  version="0.1"  >
<UnstructuredGrid>
<Piece  NumberOfPoints="101" NumberOfCells="100">
<Points>
<DataArray  type="Float64"  NumberOfComponents="3"  format="ascii">0 0 0  0.001 0 0  0.002 0 0  0.003 0 0  0.004 0 0  0.005 0 0  0.006000000000000001 0 0  0.007000000000000001 0 0  0.008 0 0  0.009000000000000001 0 0  0.01 0 0  0.011 0 0  0.012 0 0  0.013 0 0  0.014 0 0  0.015 0 0  0.016 0 0  0.017 0 0  0.018 0 0  0.019 0 0  0.02 0 0  0.021 0 0  0.022 0 0  0.023 0 0  0.024 0 0  0.025 0 0  0.026 0 0  0.027 0 0  0.028 0 0  0.029 0 0  0.03 0 0  0.031 0 0  0.032 0 0  0.033 0 0  0.034 0 0  0.035 0 0  0.036 0 0  0.03700000000000001 0 0  0.03800000000000001 0 0  0.03900000000000001 0 0  0.04 0 0  0.04100000000000001 0 0  0.042 0 0  0.043 0 0  0.044 0 0  0.045 0 0  0.04600000000000001 0 0  0.047 0 0  0.04800000000000001 0 0  0.049 0 0  0.05 0 0  0.051 0 0  0.052 0 0  0.05300000000000001 0 0  0.05400000000000001 0 0  0.055 0 0  0.05600000000000001 0 0  0.057 0 0  0.05800000000000001 0 0  0.059 0 0  0.06 0 0  0.06100000000000001 0 0  0.062 0 0  0.063 0 0  0.064 0 0  0.065 0 0  0.066 0 0  0.067 0 0  0.068 0 0  0.06900000000000001 0 0  0.07000000000000001 0 0  0.07100000000000001 0 0  0.07200000000000001 0 0  0.07300000000000001 0 0  0.07400000000000001 0 0  0.075 0 0  0.07600000000000001 0 0  0.077 0 0  0.07800000000000001 0 0  0.079 0 0  0.08 0 0  0.081 0 0  0.08200000000000002 0 0  0.083 0 0  0.08400000000000001 0 0  0.08500000000000001 0 0  0.08599999999999999 0 0  0.08700000000000001 0 0  0.08800000000000001 0 0  0.08900000000000001 0 0  0.09 0 0  0.091 0 0  0.09200000000000001 0 0  0.09300000000000001 0 0  0.094 0 0  0.095 0 0  0.09600000000000002 0 0  0.09700000000000002 0 0  0.098 0 0  0.099 0 0  0.1 0 0  </DataArray>
</Points>
<Cells>
<DataArray  type="UInt32"  Name="connectivity"  format="ascii">0 1  1 2  2 3  3 4  4 5  5 6  6 7  7 8  8 9  9 10  10 11  11 12  12 13  13 14  14 15  15 16  16 17  17 18  18 19  19 20  20 21  21 22  22 23  23 24  24 25  25 26  26 27  27 28  28 29  29 30  30 31  31 32  32 33  33 34  34 35  35 36  36 37  37 38  38 39  39 40  40 41  41 42  42 43  43 44  44 45  45 46  46 47  47 48  48 49  49 50  50 51  51 52  52 53  53 54  54 55  55 56  56 57  57 58  58 59  59 60  60 61  61 62  62 63  63 64  64 65  65 66  66 67  67 68  68 69  69 70  70 71  71 72  72 73  73 74  74 75  75 76  76 77  77 78  78 79  79 80  80 81  81 82  82 83  83 84  84 85  85 86  86 87  87 88  88 89  89 90  90 91  91 92  92 93  93 94  94 95  95 96  96 97  97 98  98 99  99 100  </DataArray>
<DataArray  type="UInt32"  Name="offsets"  format="ascii">2 4 6 8 10 12 14 16 18 20 22 24 26 28 30 32 34 36 38 40 42 44 46 48 50 52 54 56 58 60 62 64 66 68 70 72 74 76 78 80 82 84 86 88 90 92 94 96 98 100 102 104 106 108 110 112 114 116 118 120 122 124 126 128 130 132 134 136 138 140 142 144 146 148 150 152 154 156 158 160 162 164 166 168 170 172 174 176 178 180 182 184 186 188 190 192 194 196 198 200 </DataArray>
<DataArray  type="UInt8"  Name="types"  format="ascii">3 3 3 3 3 3 3 3 3 3 3 3 3 3 3 3 3 3 3 3 3 3 3 3 3 3 3 3 3 3 3 3 3 3 3 3 3 3 3 3 3 3 3 3 3 3 3 3 3 3 3 3 3 3 3 3 3 3 3 3 3 3 3 3 3 3 3 3 3 3 3 3 3 3 3 3 3 3 3 3 3 3 3 3 3 3 3 3 3 3 3 3 3 3 3 3 3 3 3 3 </DataArray>
</Cells>
<PointData  Scalars="f_14"> 
<DataArray  type="Float64"  Name="f_14"  format="ascii">1.6322927390181904e-04  1.6530067168762531e-04  1.7155501924927440e-04  1.8211328061530527e-04  1.9717873550210893e-04  2.1703949442399199e-04  2.4207203088384130e-04  2.7274574126773851e-04  3.0962854551166741e-04  3.5339354361033803e-04  4.0482674449887797e-04  4.6483588465993871e-04  5.3446035389475210e-04  6.1488224495141438e-04  7.0743854203391321e-04  8.1363446053097190e-04  9.3515794651869810e-04  1.0738953396247271e-03  1.2319481966205246e-03  1.4116512655677196e-03  1.6155915914292523e-03  1.8466287237245812e-03  2.1079159850325036e-03  2.4029227459143906e-03  2.7354576371527578e-03  3.1096926141042677e-03  3.5301877705052514e-03  4.0019167803196547e-03  4.5302928262900624e-03  5.1211948528769773e-03  5.7809939594160795e-03  6.5165797267856184e-03  7.3353862478869377e-03  8.2454176090643507e-03  9.2552725465216961e-03  1.0374167979160197e-02  1.1611961097423015e-02  1.2979169667071510e-02  1.4486990187746383e-02  1.6147313529113586e-02  1.7972737652806298e-02  1.9976577016706444e-02  2.2172868249821891e-02  2.4576371681566862e-02  2.7202568309086628e-02  3.0067651790813828e-02  3.3188515064099131e-02  3.6582731199884526e-02  4.0268528128304094e-02  4.4264756896055177e-02  4.8590853149587825e-02  5.3266791577720511e-02  5.8313033093254446e-02  6.3750464585464781e-02  6.9600331133850932e-02  7.5884160637973944e-02  8.2623680888238057e-02  8.9840729177614612e-02  9.7557154633983692e-02  1.0579471353628161e-01  1.1457495796421129e-01  1.2391911821997510e-01  1.3384797955035854e-01  1.4438175378742796e-01  1.5553994661496504e-01  1.6734122125433631e-01  1.7980325944652006e-01  1.9294262068521303e-01  2.0677460072802040e-01  2.2131309047741471e-01  2.3657043637919214e-01  2.5255730353236266e-01  2.6928254273967633e-01  2.8675306275129753e-01  3.0497370896459652e-01  3.2394714983989048e-01  3.4367377227463031e-01  3.6415158714658674e-01  3.8537614618983301e-01  4.0734047130567197e-01  4.3003499733440131e-01  4.5344752922324089e-01  4.7756321442160260e-01  5.0236453121791558e-01  5.2783129360354930e-01  5.5394067311021467e-01  5.8066723791904651e-01  6.0798300938398042e-01  6.3585753595077965e-01  6.6425798428810046e-01  6.9314924728020300e-01  7.2249406836447605e-01  7.5225318153288878e-01  7.8238546615695426e-01  8.1284811564285564e-01  8.4359681877907644e-01  8.7458595250513493e-01  9.0576878470865441e-01  9.3709768555065953e-01  9.6852434572715640e-01  1.0000000000000000e+00  </DataArray> 
</PointData> 
</Piece>
</UnstructuredGrid>
</VTKFile>