<?xml version="1.0"?>
<VTKFile type="UnstructuredGrid"  version="0.1"  >
<UnstructuredGrid>
<Piece  NumberOfPoints="101" NumberOfCells="100">
<Points>
<DataArray  type="Float64"  NumberOfComponents="3"  format="ascii">0 0 0  0.001 0 0  0.002 0 0  0.003 0 0  0.004 0 0  0.005 0 0  0.006000000000000001 0 0  0.007000000000000001 0 0  0.008 0 0  0.009000000000000001 0 0  0.01 0 0  0.011 0 0  0.012 0 0  0.013 0 0  0.014 0 0  0.015 0 0  0.016 0 0  0.017 0 0  0.018 0 0  0.019 0 0  0.02 0 0  0.021 0 0  0.022 0 0  0.023 0 0  0.024 0 0  0.025 0 0  0.026 0 0  0.027 0 0  0.028 0 0  0.029 0 0  0.03 0 0  0.031 0 0  0.032 0 0  0.033 0 0  0.034 0 0  0.035 0 0  0.036 0 0  0.03700000000000001 0 0  0.03800000000000001 0 0  0.03900000000000001 0 0  0.04 0 0  0.04100000000000001 0 0  0.042 0 0  0.043 0 0  0.044 0 0  0.045 0 0  0.04600000000000001 0 0  0.047 0 0  0.04800000000000001 0 0  0.049 0 0  0.05 0 0  0.051 0 0  0.052 0 0  0.05300000000000001 0 0  0.05400000000000001 0 0  0.055 0 0  0.05600000000000001 0 0  0.057 0 0  0.05800000000000001 0 0  0.059 0 0  0.06 0 0  0.06100000000000001 0 0  0.062 0 0  0.063 0 0  0.064 0 0  0.065 0 0  0.066 0 0  0.067 0 0  0.068 0 0  0.06900000000000001 0 0  0.07000000000000001 0 0  0.07100000000000001 0 0  0.07200000000000001 0 0  0.07300000000000001 0 0  0.07400000000000001 0 0  0.075 0 0  0.07600000000000001 0 0  0.077 0 0  0.07800000000000001 0 0  0.079 0 0  0.08 0 0  0.081 0 0  0.08200000000000002 0 0  0.083 0 0  0.08400000000000001 0 0  0.08500000000000001 0 0  0.08599999999999999 0 0  0.08700000000000001 0 0  0.08800000000000001 0 0  0.08900000000000001 0 0  0.09 0 0  0.091 0 0  0.09200000000000001 0 0  0.09300000000000001 0 0  0.094 0 0  0.095 0 0  0.09600000000000002 0 0  0.09700000000000002 0 0  0.098 0 0  0.099 0 0  0.1 0 0  </DataArray>
</Points>
<Cells>
<DataArray  type="UInt32"  Name="connectivity"  format="ascii">0 1  1 2  2 3  3 4  4 5  5 6  6 7  7 8  8 9  9 10  10 11  11 12  12 13  13 14  14 15  15 16  16 17  17 18  18 19  19 20  20 21  21 22  22 23  23 24  24 25  25 26  26 27  27 28  28 29  29 30  30 31  31 32  32 33  33 34  34 35  35 36  36 37  37 38  38 39  39 40  40 41  41 42  42 43  43 44  44 45  45 46  46 47  47 48  48 49  49 50  50 51  51 52  52 53  53 54  54 55  55 56  56 57  57 58  58 59  59 60  60 61  61 62  62 63  63 64  64 65  65 66  66 67  67 68  68 69  69 70  70 71  71 72  72 73  73 74  74 75  75 76  76 77  77 78  78 79  79 80  80 81  81 82  82 83  83 84  84 85  85 86  86 87  87 88  88 89  89 90  90 91  91 92  92 93  93 94  94 95  95 96  96 97  97 98  98 99  99 100  </DataArray>
<DataArray  type="UInt32"  Name="offsets"  format="ascii">2 4 6 8 10 12 14 16 18 20 22 24 26 28 30 32 34 36 38 40 42 44 46 48 50 52 54 56 58 60 62 64 66 68 70 72 74 76 78 80 82 84 86 88 90 92 94 96 98 100 102 104 106 108 110 112 114 116 118 120 122 124 126 128 130 132 134 136 138 140 142 144 146 148 150 152 154 156 158 160 162 164 166 168 170 172 174 176 178 180 182 184 186 188 190 192 194 196 198 200 </DataArray>
<DataArray  type="UInt8"  Name="types"  format="ascii">3 3 3 3 3 3 3 3 3 3 3 3 3 3 3 3 3 3 3 3 3 3 3 3 3 3 3 3 3 3 3 3 3 3 3 3 3 3 3 3 3 3 3 3 3 3 3 3 3 3 3 3 3 3 3 3 3 3 3 3 3 3 3 3 3 3 3 3 3 3 3 3 3 3 3 3 3 3 3 3 3 3 3 3 3 3 3 3 3 3 3 3 3 3 3 3 3 3 3 3 </DataArray>
</Cells>
<PointData  Scalars="f_14"> 
<DataArray  type="Float64"  Name="f_14"  format="ascii">1.2130111481814358e-05  1.2393685302040962e-05  1.3193781611640205e-05  1.4558776255693849e-05  1.6536804074388708e-05  1.9197035917111949e-05  2.2631495203412856e-05  2.6957442786680669e-05  3.2320367101707643e-05  3.8897624789533211e-05  4.6902785166952755e-05  5.6590740005508665e-05  6.8263648051974232e-05  8.2277791488148702e-05  9.9051429001683174e-05  1.1907373721006119e-04  1.4291493871266731e-04  1.7123772088341188e-04  2.0481005447670520e-04  2.4451952499631021e-04  2.9138929233936785e-04  3.4659579522332550e-04  4.1148831605715799e-04  4.8761051893726575e-04  5.7672406802504374e-04  6.8083442537941426e-04  8.0221891605111294e-04  9.4345713357587028e-04  1.1074637406205869e-03  1.2975236971487837e-03  1.5173299218166256e-03  1.7710233611660999e-03  2.0632354053764066e-03  2.3991325487613588e-03  2.7844631478290615e-03  3.2256060796099074e-03  3.7296210482716968e-03  4.3043002290531060e-03  4.9582208756613275e-03  5.7007984510352985e-03  6.5423397724550430e-03  7.4940955912133162e-03  8.5683119554431572e-03  9.7782796333533532e-03  1.1138380804348548e-02  1.2664132158731519e-02  1.4372223484455620e-02  1.6280550763381880e-02  1.8408242751454033e-02  2.0775679978947310e-02  2.3404505080323650e-02  2.6317623350067310e-02  2.9539192422976913e-02  3.3094599996442126e-02  3.7010428549796560e-02  4.1314406073275946e-02  4.6035341897551832e-02  5.1203046815088131e-02  5.6848236807187459e-02  6.3002419835658519e-02  6.9697765325251820e-02  7.6966956151590771e-02  8.4843023158030786e-02  9.3359162451938496e-02  1.0254853597402168e-01  1.1244405609078773e-01  1.2307815522666642e-01  1.3448254182507591e-01  1.4668794420255998e-01  1.5972384413255031e-01  1.7361820226047270e-01  1.8839717770476391e-01  2.0408484443372088e-01  2.2070290722074978e-01  2.3827042016540315e-01  2.5680351091965498e-01  2.7631511387356356e-01  2.9681471562761341e-01  3.1830811610702181e-01  3.4079720865308588e-01  3.6427978235613284e-01  3.8874934977229814e-01  4.1419500299187217e-01  4.4060130080071075e-01  4.6794818939980204e-01  4.9621095882397254e-01  5.2536023683250055e-01  5.5536202163653325e-01  5.8617775438612330e-01  6.1776443186969110e-01  6.5007475938769721e-01  6.8305734325795964e-01  7.1665692190035846e-01  7.5081463394207626e-01  7.8546832128948796e-01  8.2055286463787325e-01  8.5600054844353579e-01  8.9174145197260157e-01  9.2770386267404259e-01  9.6381470780799972e-01  1.0000000000000000e+00  </DataArray> 
</PointData> 
</Piece>
</UnstructuredGrid>
</VTKFile>