<?xml version="1.0"?>
<VTKFile type="UnstructuredGrid"  version="0.1"  >
<UnstructuredGrid>
<Piece  NumberOfPoints="101" NumberOfCells="100">
<Points>
<DataArray  type="Float64"  NumberOfComponents="3"  format="ascii">0 0 0  0.001 0 0  0.002 0 0  0.003 0 0  0.004 0 0  0.005 0 0  0.006000000000000001 0 0  0.007000000000000001 0 0  0.008 0 0  0.009000000000000001 0 0  0.01 0 0  0.011 0 0  0.012 0 0  0.013 0 0  0.014 0 0  0.015 0 0  0.016 0 0  0.017 0 0  0.018 0 0  0.019 0 0  0.02 0 0  0.021 0 0  0.022 0 0  0.023 0 0  0.024 0 0  0.025 0 0  0.026 0 0  0.027 0 0  0.028 0 0  0.029 0 0  0.03 0 0  0.031 0 0  0.032 0 0  0.033 0 0  0.034 0 0  0.035 0 0  0.036 0 0  0.03700000000000001 0 0  0.03800000000000001 0 0  0.03900000000000001 0 0  0.04 0 0  0.04100000000000001 0 0  0.042 0 0  0.043 0 0  0.044 0 0  0.045 0 0  0.04600000000000001 0 0  0.047 0 0  0.04800000000000001 0 0  0.049 0 0  0.05 0 0  0.051 0 0  0.052 0 0  0.05300000000000001 0 0  0.05400000000000001 0 0  0.055 0 0  0.05600000000000001 0 0  0.057 0 0  0.05800000000000001 0 0  0.059 0 0  0.06 0 0  0.06100000000000001 0 0  0.062 0 0  0.063 0 0  0.064 0 0  0.065 0 0  0.066 0 0  0.067 0 0  0.068 0 0  0.06900000000000001 0 0  0.07000000000000001 0 0  0.07100000000000001 0 0  0.07200000000000001 0 0  0.07300000000000001 0 0  0.07400000000000001 0 0  0.075 0 0  0.07600000000000001 0 0  0.077 0 0  0.07800000000000001 0 0  0.079 0 0  0.08 0 0  0.081 0 0  0.08200000000000002 0 0  0.083 0 0  0.08400000000000001 0 0  0.08500000000000001 0 0  0.08599999999999999 0 0  0.08700000000000001 0 0  0.08800000000000001 0 0  0.08900000000000001 0 0  0.09 0 0  0.091 0 0  0.09200000000000001 0 0  0.09300000000000001 0 0  0.094 0 0  0.095 0 0  0.09600000000000002 0 0  0.09700000000000002 0 0  0.098 0 0  0.099 0 0  0.1 0 0  </DataArray>
</Points>
<Cells>
<DataArray  type="UInt32"  Name="connectivity"  format="ascii">0 1  1 2  2 3  3 4  4 5  5 6  6 7  7 8  8 9  9 10  10 11  11 12  12 13  13 14  14 15  15 16  16 17  17 18  18 19  19 20  20 21  21 22  22 23  23 24  24 25  25 26  26 27  27 28  28 29  29 30  30 31  31 32  32 33  33 34  34 35  35 36  36 37  37 38  38 39  39 40  40 41  41 42  42 43  43 44  44 45  45 46  46 47  47 48  48 49  49 50  50 51  51 52  52 53  53 54  54 55  55 56  56 57  57 58  58 59  59 60  60 61  61 62  62 63  63 64  64 65  65 66  66 67  67 68  68 69  69 70  70 71  71 72  72 73  73 74  74 75  75 76  76 77  77 78  78 79  79 80  80 81  81 82  82 83  83 84  84 85  85 86  86 87  87 88  88 89  89 90  90 91  91 92  92 93  93 94  94 95  95 96  96 97  97 98  98 99  99 100  </DataArray>
<DataArray  type="UInt32"  Name="offsets"  format="ascii">2 4 6 8 10 12 14 16 18 20 22 24 26 28 30 32 34 36 38 40 42 44 46 48 50 52 54 56 58 60 62 64 66 68 70 72 74 76 78 80 82 84 86 88 90 92 94 96 98 100 102 104 106 108 110 112 114 116 118 120 122 124 126 128 130 132 134 136 138 140 142 144 146 148 150 152 154 156 158 160 162 164 166 168 170 172 174 176 178 180 182 184 186 188 190 192 194 196 198 200 </DataArray>
<DataArray  type="UInt8"  Name="types"  format="ascii">3 3 3 3 3 3 3 3 3 3 3 3 3 3 3 3 3 3 3 3 3 3 3 3 3 3 3 3 3 3 3 3 3 3 3 3 3 3 3 3 3 3 3 3 3 3 3 3 3 3 3 3 3 3 3 3 3 3 3 3 3 3 3 3 3 3 3 3 3 3 3 3 3 3 3 3 3 3 3 3 3 3 3 3 3 3 3 3 3 3 3 3 3 3 3 3 3 3 3 3 </DataArray>
</Cells>
<PointData  Scalars="f_14"> 
<DataArray  type="Float64"  Name="f_14"  format="ascii">1.3220164784685491e-03  1.3315534002320893e-03  1.3602591387313740e-03  1.4084190440580993e-03  1.4765101323430683e-03  1.5652032268640133e-03  1.6753659398225571e-03  1.8080664788876627e-03  1.9645782578787906e-03  2.1463852861081370e-03  2.3551883058953800e-03  2.5929116425913324e-03  2.8617107260845574e-03  3.1639802372075681e-03  3.5023628267028223e-03  3.8797583484550115e-03  4.2993335425535540e-03  4.7645320974326133e-03  5.2790850138677110e-03  5.8470211870174510e-03  6.4726781160231233e-03  7.1607126439627699e-03  7.9161116242517978e-03  8.7442024029493869e-03  9.6506629999356820e-03  1.0641531865643240e-02  1.1723217084038100e-02  1.2902504886937300e-02  1.4186567339613265e-02  1.5582969053066669e-02  1.7099672774448807e-02  1.8745043703984120e-02  2.0527852384487167e-02  2.2457276008290197e-02  2.4542897986199397e-02  2.6794705624080584e-02  2.9223085754933553e-02  3.1838818177938127e-02  3.4653066761027085e-02  3.7677368070133443e-02  4.0923617396435651e-02  4.4404052062732284e-02  4.8131231901554473e-02  5.2118016810790570e-02  5.6377541307452025e-02  6.0923186016743791e-02  6.5768546051775609e-02  7.0927396259008402e-02  7.6413653325801439e-02  8.2241334769100671e-02  8.8424514848282634e-02  9.4977277470280175e-02  1.0191366618121993e-01  1.0924763136569632e-01  1.1699297480229659e-01  1.2516329175184576e-01  1.3377191078282083e-01  1.4283183156622520e-01  1.5235566089965757e-01  1.6235554724705198e-01  1.7284311410634470e-01  1.8382939254180922e-01  1.9532475324072779e-01  2.0733883847511861e-01  2.1988049436812415e-01  2.3295770388112133e-01  2.4657752095134519e-01  2.6074600622059085e-01  2.7546816480313535e-01  2.9074788654518463e-01  3.0658788922874020e-01  3.2298966516961930e-01  3.3995343165235964e-01  3.5747808563379546e-01  3.7556116313218219e-01  3.9419880369985444e-01  4.1338572035458604e-01  4.3311517531814725e-01  4.5337896188018645e-01  4.7416739267160979e-01  4.9546929459440331e-01  5.1727201061448191e-01  5.3956140858106771e-01  5.6232189719053316e-01  5.8553644916503533e-01  6.0918663166695719e-01  6.3325264391964076e-01  6.5771336195354435e-01  6.8254639034526987e-01  7.0772812076539715e-01  7.3323379710013326e-01  7.5903758686202283e-01  7.8511265855677304e-01  8.1143126462715809e-01  8.3796482955138962e-01  8.6468404263275334e-01  8.9155895498009341e-01  9.1855908014528731e-01  9.4565349785451103e-01  9.7281096024515668e-01  1.0000000000000000e+00  </DataArray> 
</PointData> 
</Piece>
</UnstructuredGrid>
</VTKFile>