<?xml version="1.0"?>
<VTKFile type="UnstructuredGrid"  version="0.1"  >
<UnstructuredGrid>
<Piece  NumberOfPoints="101" NumberOfCells="100">
<Points>
<DataArray  type="Float64"  NumberOfComponents="3"  format="ascii">0 0 0  0.001 0 0  0.002 0 0  0.003 0 0  0.004 0 0  0.005 0 0  0.006000000000000001 0 0  0.007000000000000001 0 0  0.008 0 0  0.009000000000000001 0 0  0.01 0 0  0.011 0 0  0.012 0 0  0.013 0 0  0.014 0 0  0.015 0 0  0.016 0 0  0.017 0 0  0.018 0 0  0.019 0 0  0.02 0 0  0.021 0 0  0.022 0 0  0.023 0 0  0.024 0 0  0.025 0 0  0.026 0 0  0.027 0 0  0.028 0 0  0.029 0 0  0.03 0 0  0.031 0 0  0.032 0 0  0.033 0 0  0.034 0 0  0.035 0 0  0.036 0 0  0.03700000000000001 0 0  0.03800000000000001 0 0  0.03900000000000001 0 0  0.04 0 0  0.04100000000000001 0 0  0.042 0 0  0.043 0 0  0.044 0 0  0.045 0 0  0.04600000000000001 0 0  0.047 0 0  0.04800000000000001 0 0  0.049 0 0  0.05 0 0  0.051 0 0  0.052 0 0  0.05300000000000001 0 0  0.05400000000000001 0 0  0.055 0 0  0.05600000000000001 0 0  0.057 0 0  0.05800000000000001 0 0  0.059 0 0  0.06 0 0  0.06100000000000001 0 0  0.062 0 0  0.063 0 0  0.064 0 0  0.065 0 0  0.066 0 0  0.067 0 0  0.068 0 0  0.06900000000000001 0 0  0.07000000000000001 0 0  0.07100000000000001 0 0  0.07200000000000001 0 0  0.07300000000000001 0 0  0.07400000000000001 0 0  0.075 0 0  0.07600000000000001 0 0  0.077 0 0  0.07800000000000001 0 0  0.079 0 0  0.08 0 0  0.081 0 0  0.08200000000000002 0 0  0.083 0 0  0.08400000000000001 0 0  0.08500000000000001 0 0  0.08599999999999999 0 0  0.08700000000000001 0 0  0.08800000000000001 0 0  0.08900000000000001 0 0  0.09 0 0  0.091 0 0  0.09200000000000001 0 0  0.09300000000000001 0 0  0.094 0 0  0.095 0 0  0.09600000000000002 0 0  0.09700000000000002 0 0  0.098 0 0  0.099 0 0  0.1 0 0  </DataArray>
</Points>
<Cells>
<DataArray  type="UInt32"  Name="connectivity"  format="ascii">0 1  1 2  2 3  3 4  4 5  5 6  6 7  7 8  8 9  9 10  10 11  11 12  12 13  13 14  14 15  15 16  16 17  17 18  18 19  19 20  20 21  21 22  22 23  23 24  24 25  25 26  26 27  27 28  28 29  29 30  30 31  31 32  32 33  33 34  34 35  35 36  36 37  37 38  38 39  39 40  40 41  41 42  42 43  43 44  44 45  45 46  46 47  47 48  48 49  49 50  50 51  51 52  52 53  53 54  54 55  55 56  56 57  57 58  58 59  59 60  60 61  61 62  62 63  63 64  64 65  65 66  66 67  67 68  68 69  69 70  70 71  71 72  72 73  73 74  74 75  75 76  76 77  77 78  78 79  79 80  80 81  81 82  82 83  83 84  84 85  85 86  86 87  87 88  88 89  89 90  90 91  91 92  92 93  93 94  94 95  95 96  96 97  97 98  98 99  99 100  </DataArray>
<DataArray  type="UInt32"  Name="offsets"  format="ascii">2 4 6 8 10 12 14 16 18 20 22 24 26 28 30 32 34 36 38 40 42 44 46 48 50 52 54 56 58 60 62 64 66 68 70 72 74 76 78 80 82 84 86 88 90 92 94 96 98 100 102 104 106 108 110 112 114 116 118 120 122 124 126 128 130 132 134 136 138 140 142 144 146 148 150 152 154 156 158 160 162 164 166 168 170 172 174 176 178 180 182 184 186 188 190 192 194 196 198 200 </DataArray>
<DataArray  type="UInt8"  Name="types"  format="ascii">3 3 3 3 3 3 3 3 3 3 3 3 3 3 3 3 3 3 3 3 3 3 3 3 3 3 3 3 3 3 3 3 3 3 3 3 3 3 3 3 3 3 3 3 3 3 3 3 3 3 3 3 3 3 3 3 3 3 3 3 3 3 3 3 3 3 3 3 3 3 3 3 3 3 3 3 3 3 3 3 3 3 3 3 3 3 3 3 3 3 3 3 3 3 3 3 3 3 3 3 </DataArray>
</Cells>
<PointData  Scalars="f_14"> 
<DataArray  type="Float64"  Name="f_14"  format="ascii">5.7867081571754208e-08  6.0645406040140245e-08  6.9214711528478452e-08  8.4294821362145668e-08  1.0714250704377779e-07  1.3964054306086894e-07  1.8442944340226183e-07  2.4508928810163907e-07  3.2638167052711306e-07  4.3456481132660884e-07  5.7779839472057908e-07  7.6665879702580003e-07  1.0147902145062173e-06  1.3397228856466736e-06  1.7638962785128071e-06  2.3159329220053151e-06  3.0322176522211976e-06  3.9588475776671030e-06  5.1540301962104902e-06  6.6910209746605223e-06  8.6617074705215739e-06  1.1180964858222783e-05  1.4391927614600485e-05  1.8472344176983594e-05  2.3642205615862253e-05  3.0172865699295403e-05  3.8397898020188097e-05  4.8725965860105971e-05  6.1656011802255876e-05  7.7795106267549783e-05  9.7879326455191428e-05  1.2279806876570618e-04  1.5362222761401760e-04  1.9163670033464921e-04  2.3837770014957570e-04  2.9567537519482309e-04  3.6570223944568298e-04  4.5102791889476643e-04  5.5468070119032054e-04  6.8021634665555613e-04  8.3179457060898472e-04  1.0142635385879480e-03  1.2332526248935627e-03  1.4952735684292796e-03  1.8078300159683415e-03  2.1795352700260066e-03  2.6202378552358683e-03  3.1411542830288119e-03  3.7550081298236312e-03  4.4761742501890711e-03  5.3208266260009402e-03  6.3070880092373355e-03  7.4551791548571889e-03  8.7875650677743267e-03  1.0329095312350853e-02  1.2107135063651086e-02  1.4151683227895845e-02  1.6495473637391688e-02  1.9174055046015923e-02  2.2225845429248801e-02  2.5692155942356808e-02  2.9617179826266646e-02  3.4047941587119220e-02  3.9034201925652191e-02  4.4628314168068735e-02  5.0885028360391250e-02  5.7861239740175187e-02  6.5615678996233981e-02  7.4208542568169444e-02  8.3701062218128619e-02  9.4155014217723737e-02  1.0563216971890869e-01  1.1819368919922872e-01  1.3189946526473495e-01  1.4680741952880957e-01  1.6297276072882239e-01  1.8044721265807698e-01  1.9927822183839269e-01  2.1950815609783866e-01  2.4117350630704115e-01  2.6430410442563201e-01  2.8892237167942786e-01  3.1504261109439941e-01  3.4267035872591961e-01  3.7180180771829052e-01  4.0242331879477422e-01  4.3451102990567403e-01  4.6803057655405944e-01  5.0293693278806972e-01  5.3917438101791093e-01  5.7667661671687298e-01  6.1536699174057563e-01  6.5515889749690304e-01  6.9595628657768982e-01  7.3765432878452264e-01  7.8014019481122199e-01  8.2329395825257778e-01  8.6698960416032411e-01  9.1109613012821067e-01  9.5547872391888222e-01  1.0000000000000000e+00  </DataArray> 
</PointData> 
</Piece>
</UnstructuredGrid>
</VTKFile>