<?xml version="1.0"?>
<VTKFile type="UnstructuredGrid"  version="0.1"  >
<UnstructuredGrid>
<Piece  NumberOfPoints="101" NumberOfCells="100">
<Points>
<DataArray  type="Float64"  NumberOfComponents="3"  format="ascii">0 0 0  0.001 0 0  0.002 0 0  0.003 0 0  0.004 0 0  0.005 0 0  0.006000000000000001 0 0  0.007000000000000001 0 0  0.008 0 0  0.009000000000000001 0 0  0.01 0 0  0.011 0 0  0.012 0 0  0.013 0 0  0.014 0 0  0.015 0 0  0.016 0 0  0.017 0 0  0.018 0 0  0.019 0 0  0.02 0 0  0.021 0 0  0.022 0 0  0.023 0 0  0.024 0 0  0.025 0 0  0.026 0 0  0.027 0 0  0.028 0 0  0.029 0 0  0.03 0 0  0.031 0 0  0.032 0 0  0.033 0 0  0.034 0 0  0.035 0 0  0.036 0 0  0.03700000000000001 0 0  0.03800000000000001 0 0  0.03900000000000001 0 0  0.04 0 0  0.04100000000000001 0 0  0.042 0 0  0.043 0 0  0.044 0 0  0.045 0 0  0.04600000000000001 0 0  0.047 0 0  0.04800000000000001 0 0  0.049 0 0  0.05 0 0  0.051 0 0  0.052 0 0  0.05300000000000001 0 0  0.05400000000000001 0 0  0.055 0 0  0.05600000000000001 0 0  0.057 0 0  0.05800000000000001 0 0  0.059 0 0  0.06 0 0  0.06100000000000001 0 0  0.062 0 0  0.063 0 0  0.064 0 0  0.065 0 0  0.066 0 0  0.067 0 0  0.068 0 0  0.06900000000000001 0 0  0.07000000000000001 0 0  0.07100000000000001 0 0  0.07200000000000001 0 0  0.07300000000000001 0 0  0.07400000000000001 0 0  0.075 0 0  0.07600000000000001 0 0  0.077 0 0  0.07800000000000001 0 0  0.079 0 0  0.08 0 0  0.081 0 0  0.08200000000000002 0 0  0.083 0 0  0.08400000000000001 0 0  0.08500000000000001 0 0  0.08599999999999999 0 0  0.08700000000000001 0 0  0.08800000000000001 0 0  0.08900000000000001 0 0  0.09 0 0  0.091 0 0  0.09200000000000001 0 0  0.09300000000000001 0 0  0.094 0 0  0.095 0 0  0.09600000000000002 0 0  0.09700000000000002 0 0  0.098 0 0  0.099 0 0  0.1 0 0  </DataArray>
</Points>
<Cells>
<DataArray  type="UInt32"  Name="connectivity"  format="ascii">0 1  1 2  2 3  3 4  4 5  5 6  6 7  7 8  8 9  9 10  10 11  11 12  12 13  13 14  14 15  15 16  16 17  17 18  18 19  19 20  20 21  21 22  22 23  23 24  24 25  25 26  26 27  27 28  28 29  29 30  30 31  31 32  32 33  33 34  34 35  35 36  36 37  37 38  38 39  39 40  40 41  41 42  42 43  43 44  44 45  45 46  46 47  47 48  48 49  49 50  50 51  51 52  52 53  53 54  54 55  55 56  56 57  57 58  58 59  59 60  60 61  61 62  62 63  63 64  64 65  65 66  66 67  67 68  68 69  69 70  70 71  71 72  72 73  73 74  74 75  75 76  76 77  77 78  78 79  79 80  80 81  81 82  82 83  83 84  84 85  85 86  86 87  87 88  88 89  89 90  90 91  91 92  92 93  93 94  94 95  95 96  96 97  97 98  98 99  99 100  </DataArray>
<DataArray  type="UInt32"  Name="offsets"  format="ascii">2 4 6 8 10 12 14 16 18 20 22 24 26 28 30 32 34 36 38 40 42 44 46 48 50 52 54 56 58 60 62 64 66 68 70 72 74 76 78 80 82 84 86 88 90 92 94 96 98 100 102 104 106 108 110 112 114 116 118 120 122 124 126 128 130 132 134 136 138 140 142 144 146 148 150 152 154 156 158 160 162 164 166 168 170 172 174 176 178 180 182 184 186 188 190 192 194 196 198 200 </DataArray>
<DataArray  type="UInt8"  Name="types"  format="ascii">3 3 3 3 3 3 3 3 3 3 3 3 3 3 3 3 3 3 3 3 3 3 3 3 3 3 3 3 3 3 3 3 3 3 3 3 3 3 3 3 3 3 3 3 3 3 3 3 3 3 3 3 3 3 3 3 3 3 3 3 3 3 3 3 3 3 3 3 3 3 3 3 3 3 3 3 3 3 3 3 3 3 3 3 3 3 3 3 3 3 3 3 3 3 3 3 3 3 3 3 </DataArray>
</Cells>
<PointData  Scalars="f_14"> 
<DataArray  type="Float64"  Name="f_14"  format="ascii">1.4945132643694896e-55  3.7199572258141348e-55  1.6999390555990647e-54  8.0658921401097515e-54  3.8275479399834209e-53  1.8133956576602560e-52  8.5767164755371467e-52  4.0493860601783815e-51  1.9084506045376445e-50  8.9780039522307015e-50  4.2156911236428223e-49  1.9757425078848834e-48  9.2415825737798342e-48  4.3141781549043700e-47  2.0098617298809147e-46  9.3439535268947957e-46  4.3348180008060406e-45  2.0066211778637926e-44  9.2681299053004921e-44  4.2709857878315424e-43  1.9635850408784387e-42  9.0060075713987895e-42  4.1205049620621881e-41  1.8805189597988138e-40  8.5602559649976435e-40  3.8864146331740677e-39  1.7596867620958169e-38  7.9453827244223403e-38  3.5773025311510078e-37  1.6059233994509986e-36  7.1876659034587073e-36  3.2070743992563163e-35  1.4264318039331083e-34  6.3237544268153503e-34  2.7940908881005675e-33  1.2302841535414052e-32  5.3979106993031746e-32  2.3596923941197315e-31  1.0276531310157290e-30  4.4580920867795706e-30  1.9262401400645646e-29  8.2884989049652959e-29  3.5513050705022178e-28  1.5149090661554101e-27  6.4329262622344524e-27  2.7188663246354615e-26  1.1435495042314405e-25  4.7856063185198005e-25  1.9923111631296860e-24  8.2496380452951844e-24  3.3969191666000044e-23  1.3906525427739125e-22  5.6590143689844127e-22  2.2885063257946960e-21  9.1949086273639687e-21  3.6695728756529619e-20  1.4542490382683870e-19  5.7212728878550120e-19  2.2338043523498212e-18  8.6527896826826247e-18  3.3241223803210770e-17  1.2660465101824268e-16  4.7786584442476122e-16  1.7867630818436138e-15  6.6151819048218074e-15  2.4239680115207449e-14  8.7862764767955686e-14  3.1487876435710959e-13  1.1150486284107233e-12  3.8993297083648251e-12  1.3456945776810293e-11  4.5799146391437586e-11  1.5360100447151570e-10  5.0722843109854316e-10  1.6478081181272815e-09  5.2613268874264642e-09  1.6494180989127730e-08  5.0715538393026352e-08  1.5276309789273674e-07  4.5021214084529493e-07  1.2964356856465573e-06  3.6424264324903438e-06  9.9692639458618886e-06  2.6536795203028484e-05  6.8577414168928121e-05  1.7173127809905919e-04  4.1590889348555886e-04  9.7214961431995434e-04  2.1884039184612318e-03  4.7340517723071535e-03  9.8196130468042511e-03  1.9488084421084732e-02  3.6927795132477008e-02  6.6682773141864951e-02  1.1455813957185110e-01  1.8699110915593006e-01  2.8975765908226947e-01  4.2615149989643936e-01  5.9513935576094268e-01  7.9026486654012440e-01  1.0000000000000000e+00  </DataArray> 
</PointData> 
</Piece>
</UnstructuredGrid>
</VTKFile>