<?xml version="1.0"?>
<VTKFile type="UnstructuredGrid"  version="0.1"  >
<UnstructuredGrid>
<Piece  NumberOfPoints="101" NumberOfCells="100">
<Points>
<DataArray  type="Float64"  NumberOfComponents="3"  format="ascii">0 0 0  0.001 0 0  0.002 0 0  0.003 0 0  0.004 0 0  0.005 0 0  0.006000000000000001 0 0  0.007000000000000001 0 0  0.008 0 0  0.009000000000000001 0 0  0.01 0 0  0.011 0 0  0.012 0 0  0.013 0 0  0.014 0 0  0.015 0 0  0.016 0 0  0.017 0 0  0.018 0 0  0.019 0 0  0.02 0 0  0.021 0 0  0.022 0 0  0.023 0 0  0.024 0 0  0.025 0 0  0.026 0 0  0.027 0 0  0.028 0 0  0.029 0 0  0.03 0 0  0.031 0 0  0.032 0 0  0.033 0 0  0.034 0 0  0.035 0 0  0.036 0 0  0.03700000000000001 0 0  0.03800000000000001 0 0  0.03900000000000001 0 0  0.04 0 0  0.04100000000000001 0 0  0.042 0 0  0.043 0 0  0.044 0 0  0.045 0 0  0.04600000000000001 0 0  0.047 0 0  0.04800000000000001 0 0  0.049 0 0  0.05 0 0  0.051 0 0  0.052 0 0  0.05300000000000001 0 0  0.05400000000000001 0 0  0.055 0 0  0.05600000000000001 0 0  0.057 0 0  0.05800000000000001 0 0  0.059 0 0  0.06 0 0  0.06100000000000001 0 0  0.062 0 0  0.063 0 0  0.064 0 0  0.065 0 0  0.066 0 0  0.067 0 0  0.068 0 0  0.06900000000000001 0 0  0.07000000000000001 0 0  0.07100000000000001 0 0  0.07200000000000001 0 0  0.07300000000000001 0 0  0.07400000000000001 0 0  0.075 0 0  0.07600000000000001 0 0  0.077 0 0  0.07800000000000001 0 0  0.079 0 0  0.08 0 0  0.081 0 0  0.08200000000000002 0 0  0.083 0 0  0.08400000000000001 0 0  0.08500000000000001 0 0  0.08599999999999999 0 0  0.08700000000000001 0 0  0.08800000000000001 0 0  0.08900000000000001 0 0  0.09 0 0  0.091 0 0  0.09200000000000001 0 0  0.09300000000000001 0 0  0.094 0 0  0.095 0 0  0.09600000000000002 0 0  0.09700000000000002 0 0  0.098 0 0  0.099 0 0  0.1 0 0  </DataArray>
</Points>
<Cells>
<DataArray  type="UInt32"  Name="connectivity"  format="ascii">0 1  1 2  2 3  3 4  4 5  5 6  6 7  7 8  8 9  9 10  10 11  11 12  12 13  13 14  14 15  15 16  16 17  17 18  18 19  19 20  20 21  21 22  22 23  23 24  24 25  25 26  26 27  27 28  28 29  29 30  30 31  31 32  32 33  33 34  34 35  35 36  36 37  37 38  38 39  39 40  40 41  41 42  42 43  43 44  44 45  45 46  46 47  47 48  48 49  49 50  50 51  51 52  52 53  53 54  54 55  55 56  56 57  57 58  58 59  59 60  60 61  61 62  62 63  63 64  64 65  65 66  66 67  67 68  68 69  69 70  70 71  71 72  72 73  73 74  74 75  75 76  76 77  77 78  78 79  79 80  80 81  81 82  82 83  83 84  84 85  85 86  86 87  87 88  88 89  89 90  90 91  91 92  92 93  93 94  94 95  95 96  96 97  97 98  98 99  99 100  </DataArray>
<DataArray  type="UInt32"  Name="offsets"  format="ascii">2 4 6 8 10 12 14 16 18 20 22 24 26 28 30 32 34 36 38 40 42 44 46 48 50 52 54 56 58 60 62 64 66 68 70 72 74 76 78 80 82 84 86 88 90 92 94 96 98 100 102 104 106 108 110 112 114 116 118 120 122 124 126 128 130 132 134 136 138 140 142 144 146 148 150 152 154 156 158 160 162 164 166 168 170 172 174 176 178 180 182 184 186 188 190 192 194 196 198 200 </DataArray>
<DataArray  type="UInt8"  Name="types"  format="ascii">3 3 3 3 3 3 3 3 3 3 3 3 3 3 3 3 3 3 3 3 3 3 3 3 3 3 3 3 3 3 3 3 3 3 3 3 3 3 3 3 3 3 3 3 3 3 3 3 3 3 3 3 3 3 3 3 3 3 3 3 3 3 3 3 3 3 3 3 3 3 3 3 3 3 3 3 3 3 3 3 3 3 3 3 3 3 3 3 3 3 3 3 3 3 3 3 3 3 3 3 </DataArray>
</Cells>
<PointData  Scalars="f_14"> 
<DataArray  type="Float64"  Name="f_14"  format="ascii">1.2149003677196808e-04  1.2314137059621968e-04  1.2813000669671323e-04  1.3656032916026695e-04  1.4860791430742871e-04  1.6452194248165481e-04  1.8462858943177473e-04  2.0933541176059280e-04  2.3913674446769927e-04  2.7462013173216711e-04  3.1647381466085186e-04  3.6549530166936041e-04  4.2260104836327908e-04  4.8883727414416841e-04  5.6539194217528857e-04  6.5360792770384056e-04  7.5499739694930912e-04  8.7125741473381886e-04  1.0042867936574454e-03  1.1562041908225235e-03  1.3293674498079729e-03  1.5263941757197982e-03  1.7501835196425187e-03  2.0039391356493365e-03  2.2911932586756104e-03  2.6158318350212552e-03  2.9821206190477371e-03  3.3947321298258941e-03  3.8587733401534647e-03  4.3798139476095271e-03  4.9639150532956111e-03  5.6176580488153044e-03  6.3481734860890210e-03  7.1631696780517975e-03  8.0709607514417078e-03  9.0804938460981727e-03  1.0201375128834058e-02  1.1443894264441600e-02  1.2819046962192536e-02  1.4338555193780706e-02  1.6014884658539678e-02  1.7861259054478461e-02  1.9891670699757211e-02  2.2120887039222357e-02  2.4564452565079636e-02  2.7238685680241747e-02  3.0160670037852850e-02  3.3348239901442756e-02  3.6819959087536290e-02  4.0595093076708041e-02  4.4693573910347013e-02  4.9135957528999449e-02  5.3943373254240083e-02  5.9137465169610798e-02  6.4740325217195943e-02  7.0774417894678671e-02  7.7262496512928644e-02  8.4227511055857116e-02  9.1692507771865328e-02  9.9680520718977678e-02  1.0821445558286243e-01  1.1731696618739673e-01  1.2701032422015368e-01  1.3731628279894753e-01  1.4825593460905792e-01  1.5984956544258011e-01  1.7211650407002876e-01  1.8507496946836330e-01  1.9874191651745354e-01  2.1313288135712999e-01  2.2826182766784472e-01  2.4414099519814514e-01  2.6078075191024286e-01  2.7818945114966409e-01  2.9637329526514627e-01  3.1533620710960697e-01  3.3507971084134458e-01  3.5560282341602673e-01  3.7690195811412747e-01  3.9897084138508632e-01  4.2180044420878787e-01  4.4537892907726168e-01  4.6969161358553524e-01  4.9472095149113388e-01  5.2044653195807755e-01  5.4684509754469368e-01  5.7389058132690052e-01  6.0155416337158707e-01  6.2980434659044748e-01  6.5860705181533885e-01  6.8792573174419869e-01  7.1772150321435590e-01  7.4795329707007252e-01  7.7857802470598358e-01  8.0955076019020578e-01  8.4082493670271685e-01  8.7235255586849303e-01  9.0408440842304372e-01  9.3597030452236307e-01  9.6795931190175399e-01  1.0000000000000000e+00  </DataArray> 
</PointData> 
</Piece>
</UnstructuredGrid>
</VTKFile>