<?xml version="1.0"?>
<VTKFile type="UnstructuredGrid"  version="0.1"  >
<UnstructuredGrid>
<Piece  NumberOfPoints="101" NumberOfCells="100">
<Points>
<DataArray  type="Float64"  NumberOfComponents="3"  format="ascii">0 0 0  0.001 0 0  0.002 0 0  0.003 0 0  0.004 0 0  0.005 0 0  0.006000000000000001 0 0  0.007000000000000001 0 0  0.008 0 0  0.009000000000000001 0 0  0.01 0 0  0.011 0 0  0.012 0 0  0.013 0 0  0.014 0 0  0.015 0 0  0.016 0 0  0.017 0 0  0.018 0 0  0.019 0 0  0.02 0 0  0.021 0 0  0.022 0 0  0.023 0 0  0.024 0 0  0.025 0 0  0.026 0 0  0.027 0 0  0.028 0 0  0.029 0 0  0.03 0 0  0.031 0 0  0.032 0 0  0.033 0 0  0.034 0 0  0.035 0 0  0.036 0 0  0.03700000000000001 0 0  0.03800000000000001 0 0  0.03900000000000001 0 0  0.04 0 0  0.04100000000000001 0 0  0.042 0 0  0.043 0 0  0.044 0 0  0.045 0 0  0.04600000000000001 0 0  0.047 0 0  0.04800000000000001 0 0  0.049 0 0  0.05 0 0  0.051 0 0  0.052 0 0  0.05300000000000001 0 0  0.05400000000000001 0 0  0.055 0 0  0.05600000000000001 0 0  0.057 0 0  0.05800000000000001 0 0  0.059 0 0  0.06 0 0  0.06100000000000001 0 0  0.062 0 0  0.063 0 0  0.064 0 0  0.065 0 0  0.066 0 0  0.067 0 0  0.068 0 0  0.06900000000000001 0 0  0.07000000000000001 0 0  0.07100000000000001 0 0  0.07200000000000001 0 0  0.07300000000000001 0 0  0.07400000000000001 0 0  0.075 0 0  0.07600000000000001 0 0  0.077 0 0  0.07800000000000001 0 0  0.079 0 0  0.08 0 0  0.081 0 0  0.08200000000000002 0 0  0.083 0 0  0.08400000000000001 0 0  0.08500000000000001 0 0  0.08599999999999999 0 0  0.08700000000000001 0 0  0.08800000000000001 0 0  0.08900000000000001 0 0  0.09 0 0  0.091 0 0  0.09200000000000001 0 0  0.09300000000000001 0 0  0.094 0 0  0.095 0 0  0.09600000000000002 0 0  0.09700000000000002 0 0  0.098 0 0  0.099 0 0  0.1 0 0  </DataArray>
</Points>
<Cells>
<DataArray  type="UInt32"  Name="connectivity"  format="ascii">0 1  1 2  2 3  3 4  4 5  5 6  6 7  7 8  8 9  9 10  10 11  11 12  12 13  13 14  14 15  15 16  16 17  17 18  18 19  19 20  20 21  21 22  22 23  23 24  24 25  25 26  26 27  27 28  28 29  29 30  30 31  31 32  32 33  33 34  34 35  35 36  36 37  37 38  38 39  39 40  40 41  41 42  42 43  43 44  44 45  45 46  46 47  47 48  48 49  49 50  50 51  51 52  52 53  53 54  54 55  55 56  56 57  57 58  58 59  59 60  60 61  61 62  62 63  63 64  64 65  65 66  66 67  67 68  68 69  69 70  70 71  71 72  72 73  73 74  74 75  75 76  76 77  77 78  78 79  79 80  80 81  81 82  82 83  83 84  84 85  85 86  86 87  87 88  88 89  89 90  90 91  91 92  92 93  93 94  94 95  95 96  96 97  97 98  98 99  99 100  </DataArray>
<DataArray  type="UInt32"  Name="offsets"  format="ascii">2 4 6 8 10 12 14 16 18 20 22 24 26 28 30 32 34 36 38 40 42 44 46 48 50 52 54 56 58 60 62 64 66 68 70 72 74 76 78 80 82 84 86 88 90 92 94 96 98 100 102 104 106 108 110 112 114 116 118 120 122 124 126 128 130 132 134 136 138 140 142 144 146 148 150 152 154 156 158 160 162 164 166 168 170 172 174 176 178 180 182 184 186 188 190 192 194 196 198 200 </DataArray>
<DataArray  type="UInt8"  Name="types"  format="ascii">3 3 3 3 3 3 3 3 3 3 3 3 3 3 3 3 3 3 3 3 3 3 3 3 3 3 3 3 3 3 3 3 3 3 3 3 3 3 3 3 3 3 3 3 3 3 3 3 3 3 3 3 3 3 3 3 3 3 3 3 3 3 3 3 3 3 3 3 3 3 3 3 3 3 3 3 3 3 3 3 3 3 3 3 3 3 3 3 3 3 3 3 3 3 3 3 3 3 3 3 </DataArray>
</Cells>
<PointData  Scalars="f_14"> 
<DataArray  type="Float64"  Name="f_14"  format="ascii">1.9216583980291543e-13  2.2065886694447744e-13  3.1403384055252160e-13  4.9800631310211035e-13  8.2267264662727686e-13  1.3751386075893720e-12  2.3011301842583596e-12  3.8404887832794067e-12  6.3844414090336062e-12  1.0567100159385094e-11  1.7410634426682726e-11  2.8554236107923269e-11  4.6613233396358796e-11  7.5739259586215747e-11  1.2248928904701835e-10  1.9716649079922277e-10  3.1587771375038270e-10  5.0367318942784581e-10  7.9931106473788682e-10  1.2624471716916138e-09  1.9844233743890617e-09  3.1043637187078490e-09  4.8330524184369736e-09  7.4881517105127006e-09  1.1545843254080292e-08  1.7716108677972158e-08  2.7051822450055471e-08  4.1105902915530384e-08  6.2156333355564137e-08  9.3526413365832460e-08  1.4003775742055050e-07  2.0864711340598328e-07  3.0933601766255356e-07  4.5634585356291472e-07  6.6988151983651271e-07  9.7844641694734817e-07  1.4220219129066607e-06  2.0563682643456250e-06  2.9588038655106422e-06  4.2359186682375596e-06  6.0337988417085940e-06  8.5514864643489854e-06  1.2058573371952802e-05  1.6918034936600389e-05  2.3615649477077906e-05  3.2797622958482384e-05  4.5318345633758338e-05  6.2300543931995890e-05  8.5210450716522419e-05  1.1595098964244767e-04  1.5697633968255270e-04  2.1143159347994798e-04  2.8332152148856371e-04  3.7771266987104328e-04  5.0097311427024901e-04  6.6105411808218271e-04  8.6781765168370440e-04  1.1334131634991292e-03  1.4727060988731163e-03  1.9037593845307372e-03  2.4483673872075511e-03  3.1326396782282422e-03  3.9876292716023373e-03  5.0499968546622162e-03  6.3626989295012580e-03  7.9756837974175321e-03  9.9465750538626115e-03  1.2341317867686696e-02  1.5234758989543804e-02  1.8711127406370456e-02  2.2864379105362164e-02  2.7798366833680793e-02  3.3626794356486508e-02  4.0472914841632360e-02  4.8468934928606301e-02  5.7755090021530418e-02  6.8478362561720796e-02  8.0790823571767395e-02  9.4847588592243307e-02  1.1080439209232583e-01  1.2881479921962263e-01  1.4902708990538899e-01  1.7158086725822014e-01  1.9660345913334734e-01  2.2420619792655699e-01  2.5448067811926339e-01  2.8749510298644454e-01  3.2329084030176031e-01  3.6187931105940696e-01  4.0323933455790462e-01  4.4731504724035814e-01  4.9401450129224450e-01  5.4320903227636674e-01  5.9473346344769229e-01  6.4838718854506017e-01  7.0393614578089914e-01  7.6111566465287028e-01  8.1963413546201980e-01  8.7917742051678771e-01  9.3941389742075576e-01  1.0000000000000000e+00  </DataArray> 
</PointData> 
</Piece>
</UnstructuredGrid>
</VTKFile>