<?xml version="1.0"?>
<VTKFile type="UnstructuredGrid"  version="0.1"  >
<UnstructuredGrid>
<Piece  NumberOfPoints="101" NumberOfCells="100">
<Points>
<DataArray  type="Float64"  NumberOfComponents="3"  format="ascii">0 0 0  0.001 0 0  0.002 0 0  0.003 0 0  0.004 0 0  0.005 0 0  0.006000000000000001 0 0  0.007000000000000001 0 0  0.008 0 0  0.009000000000000001 0 0  0.01 0 0  0.011 0 0  0.012 0 0  0.013 0 0  0.014 0 0  0.015 0 0  0.016 0 0  0.017 0 0  0.018 0 0  0.019 0 0  0.02 0 0  0.021 0 0  0.022 0 0  0.023 0 0  0.024 0 0  0.025 0 0  0.026 0 0  0.027 0 0  0.028 0 0  0.029 0 0  0.03 0 0  0.031 0 0  0.032 0 0  0.033 0 0  0.034 0 0  0.035 0 0  0.036 0 0  0.03700000000000001 0 0  0.03800000000000001 0 0  0.03900000000000001 0 0  0.04 0 0  0.04100000000000001 0 0  0.042 0 0  0.043 0 0  0.044 0 0  0.045 0 0  0.04600000000000001 0 0  0.047 0 0  0.04800000000000001 0 0  0.049 0 0  0.05 0 0  0.051 0 0  0.052 0 0  0.05300000000000001 0 0  0.05400000000000001 0 0  0.055 0 0  0.05600000000000001 0 0  0.057 0 0  0.05800000000000001 0 0  0.059 0 0  0.06 0 0  0.06100000000000001 0 0  0.062 0 0  0.063 0 0  0.064 0 0  0.065 0 0  0.066 0 0  0.067 0 0  0.068 0 0  0.06900000000000001 0 0  0.07000000000000001 0 0  0.07100000000000001 0 0  0.07200000000000001 0 0  0.07300000000000001 0 0  0.07400000000000001 0 0  0.075 0 0  0.07600000000000001 0 0  0.077 0 0  0.07800000000000001 0 0  0.079 0 0  0.08 0 0  0.081 0 0  0.08200000000000002 0 0  0.083 0 0  0.08400000000000001 0 0  0.08500000000000001 0 0  0.08599999999999999 0 0  0.08700000000000001 0 0  0.08800000000000001 0 0  0.08900000000000001 0 0  0.09 0 0  0.091 0 0  0.09200000000000001 0 0  0.09300000000000001 0 0  0.094 0 0  0.095 0 0  0.09600000000000002 0 0  0.09700000000000002 0 0  0.098 0 0  0.099 0 0  0.1 0 0  </DataArray>
</Points>
<Cells>
<DataArray  type="UInt32"  Name="connectivity"  format="ascii">0 1  1 2  2 3  3 4  4 5  5 6  6 7  7 8  8 9  9 10  10 11  11 12  12 13  13 14  14 15  15 16  16 17  17 18  18 19  19 20  20 21  21 22  22 23  23 24  24 25  25 26  26 27  27 28  28 29  29 30  30 31  31 32  32 33  33 34  34 35  35 36  36 37  37 38  38 39  39 40  40 41  41 42  42 43  43 44  44 45  45 46  46 47  47 48  48 49  49 50  50 51  51 52  52 53  53 54  54 55  55 56  56 57  57 58  58 59  59 60  60 61  61 62  62 63  63 64  64 65  65 66  66 67  67 68  68 69  69 70  70 71  71 72  72 73  73 74  74 75  75 76  76 77  77 78  78 79  79 80  80 81  81 82  82 83  83 84  84 85  85 86  86 87  87 88  88 89  89 90  90 91  91 92  92 93  93 94  94 95  95 96  96 97  97 98  98 99  99 100  </DataArray>
<DataArray  type="UInt32"  Name="offsets"  format="ascii">2 4 6 8 10 12 14 16 18 20 22 24 26 28 30 32 34 36 38 40 42 44 46 48 50 52 54 56 58 60 62 64 66 68 70 72 74 76 78 80 82 84 86 88 90 92 94 96 98 100 102 104 106 108 110 112 114 116 118 120 122 124 126 128 130 132 134 136 138 140 142 144 146 148 150 152 154 156 158 160 162 164 166 168 170 172 174 176 178 180 182 184 186 188 190 192 194 196 198 200 </DataArray>
<DataArray  type="UInt8"  Name="types"  format="ascii">3 3 3 3 3 3 3 3 3 3 3 3 3 3 3 3 3 3 3 3 3 3 3 3 3 3 3 3 3 3 3 3 3 3 3 3 3 3 3 3 3 3 3 3 3 3 3 3 3 3 3 3 3 3 3 3 3 3 3 3 3 3 3 3 3 3 3 3 3 3 3 3 3 3 3 3 3 3 3 3 3 3 3 3 3 3 3 3 3 3 3 3 3 3 3 3 3 3 3 3 </DataArray>
</Cells>
<PointData  Scalars="f_14"> 
<DataArray  type="Float64"  Name="f_14"  format="ascii">1.9591816073391490e-04  1.9829825912645086e-04  2.0548243168654377e-04  2.1760282250156087e-04  2.3488137943860379e-04  2.5763242007065560e-04  2.8626623248470946e-04  3.2129371907230328e-04  3.6333209313073382e-04  4.1311163939254485e-04  4.7148355035602044e-04  5.3942885041605745e-04  6.1806841920059800e-04  7.0867412411296964e-04  8.1268106977862656e-04  9.3170096881381177e-04  1.0675366339970003e-03  1.2221975864616774e-03  1.3979167678793195e-03  1.5971683367122555e-03  1.8226865194466337e-03  2.0774854772385156e-03  2.3648801366084778e-03  2.6885079197065879e-03  3.0523512952633901e-03  3.4607610556878460e-03  3.9184802089366460e-03  4.4306683558522249e-03  5.0029264047661620e-03  5.6413214554346287e-03  6.3524116639858963e-03  7.1432708797177710e-03  8.0215128235158646e-03  8.9953145566314327e-03  1.0073438967847320e-02  1.1265255986987216e-02  1.2580762213626036e-02  1.4030598632099404e-02  1.5626066067868576e-02  1.7379138026369277e-02  1.9302470544064795e-02  2.1409408672946637e-02  2.3713989214588959e-02  2.6230939318471092e-02  2.8975670562019353e-02  3.1964268137055510e-02  3.5213474779407387e-02  3.8740669095633458e-02  4.2563837963394580e-02  4.6701542710158930e-02  5.1172878808796680e-02  5.5997428868258349e-02  6.1195208742936200e-02  6.6786606635370144e-02  7.2792315123504175e-02  7.9233256105438424e-02  8.6130498721185583e-02  9.3505170381852742e-02  1.0137836111136471e-01  1.0977102148364531e-01  1.1870385451834083e-01  1.2819720197983198e-01  1.3827092560654017e-01  1.4894428387937464e-01  1.6023580501854004e-01  1.7216315697573711e-01  1.8474301526288917e-01  1.9799092952778147e-01  2.1192118985024574e-01  2.2654669378863526e-01  2.4187881525421562e-01  2.5792727632970730e-01  2.7470002317659770e-01  2.9220310719311937e-01  3.1044057259022001e-01  3.2941435154579463e-01  3.4912416807744545e-01  3.6956745174074285e-01  3.9073926221326877e-01  4.1263222576461106e-01  4.3523648453925157e-01  4.5853965949326631e-01  4.8252682772764849e-01  5.0718051485158411e-01  5.3248070288921090e-01  5.5840485411437824e-01  5.8492795106108131e-01  6.1202255281397877e-01  6.3965886753536150e-01  6.6780484103383264e-01  6.9642626102752536e-01  7.2548687660284283e-01  7.5494853222029268e-01  7.8477131547389634e-01  8.1491371767175669e-01  8.4533280617442874e-01  8.7598440730653460e-01  9.0682329854713761e-01  9.3780340860726585e-01  9.6887802391991318e-01  1.0000000000000000e+00  </DataArray> 
</PointData> 
</Piece>
</UnstructuredGrid>
</VTKFile>