<?xml version="1.0"?>
<VTKFile type="UnstructuredGrid"  version="0.1"  >
<UnstructuredGrid>
<Piece  NumberOfPoints="101" NumberOfCells="100">
<Points>
<DataArray  type="Float64"  NumberOfComponents="3"  format="ascii">0 0 0  0.001 0 0  0.002 0 0  0.003 0 0  0.004 0 0  0.005 0 0  0.006000000000000001 0 0  0.007000000000000001 0 0  0.008 0 0  0.009000000000000001 0 0  0.01 0 0  0.011 0 0  0.012 0 0  0.013 0 0  0.014 0 0  0.015 0 0  0.016 0 0  0.017 0 0  0.018 0 0  0.019 0 0  0.02 0 0  0.021 0 0  0.022 0 0  0.023 0 0  0.024 0 0  0.025 0 0  0.026 0 0  0.027 0 0  0.028 0 0  0.029 0 0  0.03 0 0  0.031 0 0  0.032 0 0  0.033 0 0  0.034 0 0  0.035 0 0  0.036 0 0  0.03700000000000001 0 0  0.03800000000000001 0 0  0.03900000000000001 0 0  0.04 0 0  0.04100000000000001 0 0  0.042 0 0  0.043 0 0  0.044 0 0  0.045 0 0  0.04600000000000001 0 0  0.047 0 0  0.04800000000000001 0 0  0.049 0 0  0.05 0 0  0.051 0 0  0.052 0 0  0.05300000000000001 0 0  0.05400000000000001 0 0  0.055 0 0  0.05600000000000001 0 0  0.057 0 0  0.05800000000000001 0 0  0.059 0 0  0.06 0 0  0.06100000000000001 0 0  0.062 0 0  0.063 0 0  0.064 0 0  0.065 0 0  0.066 0 0  0.067 0 0  0.068 0 0  0.06900000000000001 0 0  0.07000000000000001 0 0  0.07100000000000001 0 0  0.07200000000000001 0 0  0.07300000000000001 0 0  0.07400000000000001 0 0  0.075 0 0  0.07600000000000001 0 0  0.077 0 0  0.07800000000000001 0 0  0.079 0 0  0.08 0 0  0.081 0 0  0.08200000000000002 0 0  0.083 0 0  0.08400000000000001 0 0  0.08500000000000001 0 0  0.08599999999999999 0 0  0.08700000000000001 0 0  0.08800000000000001 0 0  0.08900000000000001 0 0  0.09 0 0  0.091 0 0  0.09200000000000001 0 0  0.09300000000000001 0 0  0.094 0 0  0.095 0 0  0.09600000000000002 0 0  0.09700000000000002 0 0  0.098 0 0  0.099 0 0  0.1 0 0  </DataArray>
</Points>
<Cells>
<DataArray  type="UInt32"  Name="connectivity"  format="ascii">0 1  1 2  2 3  3 4  4 5  5 6  6 7  7 8  8 9  9 10  10 11  11 12  12 13  13 14  14 15  15 16  16 17  17 18  18 19  19 20  20 21  21 22  22 23  23 24  24 25  25 26  26 27  27 28  28 29  29 30  30 31  31 32  32 33  33 34  34 35  35 36  36 37  37 38  38 39  39 40  40 41  41 42  42 43  43 44  44 45  45 46  46 47  47 48  48 49  49 50  50 51  51 52  52 53  53 54  54 55  55 56  56 57  57 58  58 59  59 60  60 61  61 62  62 63  63 64  64 65  65 66  66 67  67 68  68 69  69 70  70 71  71 72  72 73  73 74  74 75  75 76  76 77  77 78  78 79  79 80  80 81  81 82  82 83  83 84  84 85  85 86  86 87  87 88  88 89  89 90  90 91  91 92  92 93  93 94  94 95  95 96  96 97  97 98  98 99  99 100  </DataArray>
<DataArray  type="UInt32"  Name="offsets"  format="ascii">2 4 6 8 10 12 14 16 18 20 22 24 26 28 30 32 34 36 38 40 42 44 46 48 50 52 54 56 58 60 62 64 66 68 70 72 74 76 78 80 82 84 86 88 90 92 94 96 98 100 102 104 106 108 110 112 114 116 118 120 122 124 126 128 130 132 134 136 138 140 142 144 146 148 150 152 154 156 158 160 162 164 166 168 170 172 174 176 178 180 182 184 186 188 190 192 194 196 198 200 </DataArray>
<DataArray  type="UInt8"  Name="types"  format="ascii">3 3 3 3 3 3 3 3 3 3 3 3 3 3 3 3 3 3 3 3 3 3 3 3 3 3 3 3 3 3 3 3 3 3 3 3 3 3 3 3 3 3 3 3 3 3 3 3 3 3 3 3 3 3 3 3 3 3 3 3 3 3 3 3 3 3 3 3 3 3 3 3 3 3 3 3 3 3 3 3 3 3 3 3 3 3 3 3 3 3 3 3 3 3 3 3 3 3 3 3 </DataArray>
</Cells>
<PointData  Scalars="f_14"> 
<DataArray  type="Float64"  Name="f_14"  format="ascii">1.0526106260049631e-04  1.0673913129133690e-04  1.1120551218933503e-04  1.1875719812818954e-04  1.2955740743182093e-04  1.4383793770478297e-04  1.6190247774731963e-04  1.8413089380808255e-04  2.1098451045243371e-04  2.4301240995956247e-04  2.8085877726769046e-04  3.2527131996170743e-04  3.7711079453797973e-04  4.3736167108131757e-04  5.0714396844243079e-04  5.8772629090328150e-04  6.8054009505562341e-04  7.8719521208935061e-04  9.0949664578994537e-04  1.0494626601810647e-03  1.2093441628290508e-03  1.3916453802701053e-03  1.5991458107592997e-03  1.8349234265195552e-03  2.1023790828520478e-03  2.4052620748419742e-03  2.7476967639641263e-03  3.1342101766975400e-03  3.5697604553644093e-03  4.0597660179158461e-03  4.6101352584326585e-03  5.2272965938688441e-03  5.9182286352554613e-03  6.6904902334625344e-03  7.5522501209889107e-03  8.5123158424618532e-03  9.5801616379689678e-03  1.0765954915446930e-02  1.2080580921585569e-02  1.3535665195579144e-02  1.5143593367108183e-02  1.6917527839728948e-02  1.8871420883966809e-02  2.1020023651450077e-02  2.3378890612975683e-02  2.5964378920060011e-02  2.8793642191863290e-02  3.1884618237923781e-02  3.5256010242397703e-02  3.8927260957907099e-02  4.2918519487029967e-02  4.7250600267207336e-02  5.1944933920596140e-02  5.7023509684247083e-02  6.2508809197914364e-02  6.8423731496650805e-02  7.4791509132825534e-02  8.1635615436885869e-02  8.8979663017506580e-02  9.6847293698989728e-02  1.0526206019604915e-01  1.1424729993239970e-01  1.2382600151873990e-01  1.3402066451648642e-01  1.4485315322458439e-01  1.5634454533641437e-01  1.6851497642063898e-01  1.8138348128217688e-01  1.9496783335567000e-01  2.0928438337215563e-01  2.2434789861850241e-01  2.4017140417690705e-01  2.5676602758684131e-01  2.7414084841285608e-01  2.9230275422730140e-01  3.1125630452618136e-01  3.3100360408810375e-01  3.5154418725987602e-01  3.7287491460731148e-01  3.9498988330595819e-01  4.1788035256390965e-01  4.4153468526783768e-01  4.6593830692465482e-01  4.9107368283560154e-01  5.1692031428835750e-01  5.4345475438743085e-01  5.7065064396539722e-01  5.9847876782948961e-01  6.2690713140181642e-01  6.5590105760952322e-01  6.8542330367599513e-01  7.1543419725843982e-01  7.4589179117358717e-01  7.7675203575452534e-01  8.0796896769061977e-01  8.3949491402165632e-01  8.7128070978938965e-01  9.0327592769694520e-01  9.3542911799120276e-01  9.6768805666735880e-01  1.0000000000000000e+00  </DataArray> 
</PointData> 
</Piece>
</UnstructuredGrid>
</VTKFile>