<?xml version="1.0"?>
<VTKFile type="UnstructuredGrid"  version="0.1"  >
<UnstructuredGrid>
<Piece  NumberOfPoints="101" NumberOfCells="100">
<Points>
<DataArray  type="Float64"  NumberOfComponents="3"  format="ascii">0 0 0  0.001 0 0  0.002 0 0  0.003 0 0  0.004 0 0  0.005 0 0  0.006000000000000001 0 0  0.007000000000000001 0 0  0.008 0 0  0.009000000000000001 0 0  0.01 0 0  0.011 0 0  0.012 0 0  0.013 0 0  0.014 0 0  0.015 0 0  0.016 0 0  0.017 0 0  0.018 0 0  0.019 0 0  0.02 0 0  0.021 0 0  0.022 0 0  0.023 0 0  0.024 0 0  0.025 0 0  0.026 0 0  0.027 0 0  0.028 0 0  0.029 0 0  0.03 0 0  0.031 0 0  0.032 0 0  0.033 0 0  0.034 0 0  0.035 0 0  0.036 0 0  0.03700000000000001 0 0  0.03800000000000001 0 0  0.03900000000000001 0 0  0.04 0 0  0.04100000000000001 0 0  0.042 0 0  0.043 0 0  0.044 0 0  0.045 0 0  0.04600000000000001 0 0  0.047 0 0  0.04800000000000001 0 0  0.049 0 0  0.05 0 0  0.051 0 0  0.052 0 0  0.05300000000000001 0 0  0.05400000000000001 0 0  0.055 0 0  0.05600000000000001 0 0  0.057 0 0  0.05800000000000001 0 0  0.059 0 0  0.06 0 0  0.06100000000000001 0 0  0.062 0 0  0.063 0 0  0.064 0 0  0.065 0 0  0.066 0 0  0.067 0 0  0.068 0 0  0.06900000000000001 0 0  0.07000000000000001 0 0  0.07100000000000001 0 0  0.07200000000000001 0 0  0.07300000000000001 0 0  0.07400000000000001 0 0  0.075 0 0  0.07600000000000001 0 0  0.077 0 0  0.07800000000000001 0 0  0.079 0 0  0.08 0 0  0.081 0 0  0.08200000000000002 0 0  0.083 0 0  0.08400000000000001 0 0  0.08500000000000001 0 0  0.08599999999999999 0 0  0.08700000000000001 0 0  0.08800000000000001 0 0  0.08900000000000001 0 0  0.09 0 0  0.091 0 0  0.09200000000000001 0 0  0.09300000000000001 0 0  0.094 0 0  0.095 0 0  0.09600000000000002 0 0  0.09700000000000002 0 0  0.098 0 0  0.099 0 0  0.1 0 0  </DataArray>
</Points>
<Cells>
<DataArray  type="UInt32"  Name="connectivity"  format="ascii">0 1  1 2  2 3  3 4  4 5  5 6  6 7  7 8  8 9  9 10  10 11  11 12  12 13  13 14  14 15  15 16  16 17  17 18  18 19  19 20  20 21  21 22  22 23  23 24  24 25  25 26  26 27  27 28  28 29  29 30  30 31  31 32  32 33  33 34  34 35  35 36  36 37  37 38  38 39  39 40  40 41  41 42  42 43  43 44  44 45  45 46  46 47  47 48  48 49  49 50  50 51  51 52  52 53  53 54  54 55  55 56  56 57  57 58  58 59  59 60  60 61  61 62  62 63  63 64  64 65  65 66  66 67  67 68  68 69  69 70  70 71  71 72  72 73  73 74  74 75  75 76  76 77  77 78  78 79  79 80  80 81  81 82  82 83  83 84  84 85  85 86  86 87  87 88  88 89  89 90  90 91  91 92  92 93  93 94  94 95  95 96  96 97  97 98  98 99  99 100  </DataArray>
<DataArray  type="UInt32"  Name="offsets"  format="ascii">2 4 6 8 10 12 14 16 18 20 22 24 26 28 30 32 34 36 38 40 42 44 46 48 50 52 54 56 58 60 62 64 66 68 70 72 74 76 78 80 82 84 86 88 90 92 94 96 98 100 102 104 106 108 110 112 114 116 118 120 122 124 126 128 130 132 134 136 138 140 142 144 146 148 150 152 154 156 158 160 162 164 166 168 170 172 174 176 178 180 182 184 186 188 190 192 194 196 198 200 </DataArray>
<DataArray  type="UInt8"  Name="types"  format="ascii">3 3 3 3 3 3 3 3 3 3 3 3 3 3 3 3 3 3 3 3 3 3 3 3 3 3 3 3 3 3 3 3 3 3 3 3 3 3 3 3 3 3 3 3 3 3 3 3 3 3 3 3 3 3 3 3 3 3 3 3 3 3 3 3 3 3 3 3 3 3 3 3 3 3 3 3 3 3 3 3 3 3 3 3 3 3 3 3 3 3 3 3 3 3 3 3 3 3 3 3 </DataArray>
</Cells>
<PointData  Scalars="f_14"> 
<DataArray  type="Float64"  Name="f_14"  format="ascii">1.9811980777204915e-24  2.9089348991873045e-24  6.5358437005016795e-24  1.6136658349636263e-23  4.0281956679110156e-23  1.0024709986439591e-22  2.4815357681101461e-22  6.1077748117792731e-22  1.4945447303720515e-21  3.6355206524118589e-21  8.7907739258852369e-21  2.1128154248231439e-20  5.0470881732400898e-20  1.1982177975551843e-19  2.8269397420550530e-19  6.6275549127961167e-19  1.5438884661339118e-18  3.5733359173410538e-18  8.2166796864264860e-18  1.8769488943096880e-17  4.2590313924087721e-17  9.5993096973343904e-17  2.1488601293415212e-16  4.7773080113229587e-16  1.0547098864379851e-15  2.3121977160745090e-15  5.0329935060793533e-15  1.0876878657482722e-14  2.3335954198318979e-14  4.9700055202599298e-14  1.0506660098357236e-13  2.2045263944607471e-13  4.5906573427729014e-13  9.4865741186936772e-13  1.9452917739491635e-12  3.9579168369048306e-12  7.9895219647877728e-12  1.5999731877787166e-11  3.1783951603516525e-11  6.2628469964043069e-11  1.2239674250331420e-10  2.3722883640541667e-10  4.5596351172706334e-10  8.6900677619833551e-10  1.6421477586230926e-09  3.0765425129270957e-09  5.7140096717689342e-09  1.0519915982469529e-08  1.9197420877900229e-08  3.4721548865209281e-08  6.2236820648301798e-08  1.1054894602763303e-07  1.9457535056710728e-07  3.3932394427719043e-07  5.8627654237776921e-07  1.0035064065377706e-06  1.7015165487416312e-06  2.8577215337478884e-06  4.7538034823933442e-06  7.8319633231072375e-06  1.2778485123524490e-05  2.0646162971946822e-05  3.3031122651836396e-05  5.2324482509828353e-05  8.2065142592743719e-05  1.2742664733073175e-04  1.9587822982042492e-04  2.9806725949663360e-04  4.4897650761837964e-04  6.6941367560942246e-04  9.8789086819122914e-04  1.4429461437942845e-03  2.0859456899492332e-03  2.9843812463544624e-03  4.2256410823058276e-03  5.9211827507037055e-03  8.2109717908675304e-03  1.1267974066922846e-02  1.5302404273341102e-02  2.0565345681792958e-02  2.7351275514682482e-02  3.5998967900460116e-02  4.6890215336239979e-02  6.0445823456462724e-02  7.7118404765696980e-02  9.7381633380021745e-02  1.2171582751477264e-01  1.5058999450585070e-01  1.8444079055159329e-01  2.2364919076270934e-01  2.6851600286368821e-01  3.1923765258277548e-01  3.7588388111215026e-01  4.3837908878585169e-01  5.0648900648103057e-01  5.7981416274261510e-01  6.5779124293284041e-01  7.3970292837771623e-01  8.2469619822986828e-01  9.1180842902332659e-01  1.0000000000000000e+00  </DataArray> 
</PointData> 
</Piece>
</UnstructuredGrid>
</VTKFile>