<?xml version="1.0"?>
<VTKFile type="UnstructuredGrid"  version="0.1"  >
<UnstructuredGrid>
<Piece  NumberOfPoints="101" NumberOfCells="100">
<Points>
<DataArray  type="Float64"  NumberOfComponents="3"  format="ascii">0 0 0  0.001 0 0  0.002 0 0  0.003 0 0  0.004 0 0  0.005 0 0  0.006000000000000001 0 0  0.007000000000000001 0 0  0.008 0 0  0.009000000000000001 0 0  0.01 0 0  0.011 0 0  0.012 0 0  0.013 0 0  0.014 0 0  0.015 0 0  0.016 0 0  0.017 0 0  0.018 0 0  0.019 0 0  0.02 0 0  0.021 0 0  0.022 0 0  0.023 0 0  0.024 0 0  0.025 0 0  0.026 0 0  0.027 0 0  0.028 0 0  0.029 0 0  0.03 0 0  0.031 0 0  0.032 0 0  0.033 0 0  0.034 0 0  0.035 0 0  0.036 0 0  0.03700000000000001 0 0  0.03800000000000001 0 0  0.03900000000000001 0 0  0.04 0 0  0.04100000000000001 0 0  0.042 0 0  0.043 0 0  0.044 0 0  0.045 0 0  0.04600000000000001 0 0  0.047 0 0  0.04800000000000001 0 0  0.049 0 0  0.05 0 0  0.051 0 0  0.052 0 0  0.05300000000000001 0 0  0.05400000000000001 0 0  0.055 0 0  0.05600000000000001 0 0  0.057 0 0  0.05800000000000001 0 0  0.059 0 0  0.06 0 0  0.06100000000000001 0 0  0.062 0 0  0.063 0 0  0.064 0 0  0.065 0 0  0.066 0 0  0.067 0 0  0.068 0 0  0.06900000000000001 0 0  0.07000000000000001 0 0  0.07100000000000001 0 0  0.07200000000000001 0 0  0.07300000000000001 0 0  0.07400000000000001 0 0  0.075 0 0  0.07600000000000001 0 0  0.077 0 0  0.07800000000000001 0 0  0.079 0 0  0.08 0 0  0.081 0 0  0.08200000000000002 0 0  0.083 0 0  0.08400000000000001 0 0  0.08500000000000001 0 0  0.08599999999999999 0 0  0.08700000000000001 0 0  0.08800000000000001 0 0  0.08900000000000001 0 0  0.09 0 0  0.091 0 0  0.09200000000000001 0 0  0.09300000000000001 0 0  0.094 0 0  0.095 0 0  0.09600000000000002 0 0  0.09700000000000002 0 0  0.098 0 0  0.099 0 0  0.1 0 0  </DataArray>
</Points>
<Cells>
<DataArray  type="UInt32"  Name="connectivity"  format="ascii">0 1  1 2  2 3  3 4  4 5  5 6  6 7  7 8  8 9  9 10  10 11  11 12  12 13  13 14  14 15  15 16  16 17  17 18  18 19  19 20  20 21  21 22  22 23  23 24  24 25  25 26  26 27  27 28  28 29  29 30  30 31  31 32  32 33  33 34  34 35  35 36  36 37  37 38  38 39  39 40  40 41  41 42  42 43  43 44  44 45  45 46  46 47  47 48  48 49  49 50  50 51  51 52  52 53  53 54  54 55  55 56  56 57  57 58  58 59  59 60  60 61  61 62  62 63  63 64  64 65  65 66  66 67  67 68  68 69  69 70  70 71  71 72  72 73  73 74  74 75  75 76  76 77  77 78  78 79  79 80  80 81  81 82  82 83  83 84  84 85  85 86  86 87  87 88  88 89  89 90  90 91  91 92  92 93  93 94  94 95  95 96  96 97  97 98  98 99  99 100  </DataArray>
<DataArray  type="UInt32"  Name="offsets"  format="ascii">2 4 6 8 10 12 14 16 18 20 22 24 26 28 30 32 34 36 38 40 42 44 46 48 50 52 54 56 58 60 62 64 66 68 70 72 74 76 78 80 82 84 86 88 90 92 94 96 98 100 102 104 106 108 110 112 114 116 118 120 122 124 126 128 130 132 134 136 138 140 142 144 146 148 150 152 154 156 158 160 162 164 166 168 170 172 174 176 178 180 182 184 186 188 190 192 194 196 198 200 </DataArray>
<DataArray  type="UInt8"  Name="types"  format="ascii">3 3 3 3 3 3 3 3 3 3 3 3 3 3 3 3 3 3 3 3 3 3 3 3 3 3 3 3 3 3 3 3 3 3 3 3 3 3 3 3 3 3 3 3 3 3 3 3 3 3 3 3 3 3 3 3 3 3 3 3 3 3 3 3 3 3 3 3 3 3 3 3 3 3 3 3 3 3 3 3 3 3 3 3 3 3 3 3 3 3 3 3 3 3 3 3 3 3 3 3 </DataArray>
</Cells>
<PointData  Scalars="f_14"> 
<DataArray  type="Float64"  Name="f_14"  format="ascii">1.3333680360189516e-04  1.3511080028207981e-04  1.4046909746220446e-04  1.4952110394637013e-04  1.6245079435611801e-04  1.7951915599250209e-04  2.0106762814792439e-04  2.2752254716366442e-04  2.5940061374243189e-04  2.9731540179773878e-04  3.4198493035368080e-04  3.9424032159945775e-04  4.5503556905187860e-04  5.2545843978547477e-04  6.0674253375362502e-04  7.0028052124672846e-04  8.0763857641894779e-04  9.3057202047123078e-04  1.0710421824184073e-03  1.2312344783124264e-03  1.4135777012716315e-03  1.6207645046179225e-03  1.8557730488038501e-03  2.1218897695903707e-03  2.4227332101019084e-03  2.7622788429487637e-03  3.1448847906018892e-03  3.5753183326923278e-03  4.0587830679772782e-03  4.6009465764879241e-03  5.2079684040060867e-03  5.8865281666974452e-03  6.6438535486853210e-03  7.4877479398453451e-03  8.4266174354389409e-03  9.4694968937219359e-03  1.0626074722738355e-02  1.1906716043547068e-02  1.3322483854570801e-02  1.4885157801069384e-02  1.6607250135412168e-02  1.8502018438364277e-02  2.0583474659524221e-02  2.2866390026877202e-02  2.5366295371669872e-02  2.8099476415971717e-02  3.1082963576836795e-02  3.4334515853357207e-02  3.7872598381505293e-02  4.1716353266824123e-02  4.5885563337027570e-02  5.0400608495592004e-02  5.5282414403578568e-02  6.0552393270212959e-02  6.6232376593078207e-02  7.2344539755925141e-02  7.8911318465746866e-02  8.5955317090433386e-02  9.3499209043449660e-02  1.0156562945183505e-01  1.1017706043759574e-01  1.1935570943927111e-01  1.2912338109906021e-01  1.3950134334020559e-01  1.5051018835809171e-01  1.6216968934539625e-01  1.7449865386521685e-01  1.8751477487496346e-01  2.0123448048648943e-01  2.1567278362297895e-01  2.3084313279909296e-01  2.4675726530641848e-01  2.6342506413008054e-01  2.8085441995325999e-01  2.9905109962325610e-01  3.1801862245473062e-01  3.3775814573213092e-01  3.5826836074346380e-01  3.7954540063128933e-01  4.0158276128385556e-01  4.2437123640993663e-01  4.4789886784545169e-01  4.7215091202906539e-01  4.9710982345851024e-01  5.2275525580051874e-01  5.4906408117632366e-01  5.7601042798331226e-01  6.0356573744334818e-01  6.3169883889147904e-01  6.6037604363737668e-01  6.8956125704806481e-01  7.1921610831669158e-01  7.4930009720059776e-01  7.7977075683514985e-01  8.1058383156008751e-01  8.4169346853479488e-01  8.7305242177012110e-01  9.0461226706926212e-01  9.3632362625058929e-01  9.6813639892292125e-01  1.0000000000000000e+00  </DataArray> 
</PointData> 
</Piece>
</UnstructuredGrid>
</VTKFile>