<?xml version="1.0"?>
<VTKFile type="UnstructuredGrid"  version="0.1"  >
<UnstructuredGrid>
<Piece  NumberOfPoints="101" NumberOfCells="100">
<Points>
<DataArray  type="Float64"  NumberOfComponents="3"  format="ascii">0 0 0  0.001 0 0  0.002 0 0  0.003 0 0  0.004 0 0  0.005 0 0  0.006000000000000001 0 0  0.007000000000000001 0 0  0.008 0 0  0.009000000000000001 0 0  0.01 0 0  0.011 0 0  0.012 0 0  0.013 0 0  0.014 0 0  0.015 0 0  0.016 0 0  0.017 0 0  0.018 0 0  0.019 0 0  0.02 0 0  0.021 0 0  0.022 0 0  0.023 0 0  0.024 0 0  0.025 0 0  0.026 0 0  0.027 0 0  0.028 0 0  0.029 0 0  0.03 0 0  0.031 0 0  0.032 0 0  0.033 0 0  0.034 0 0  0.035 0 0  0.036 0 0  0.03700000000000001 0 0  0.03800000000000001 0 0  0.03900000000000001 0 0  0.04 0 0  0.04100000000000001 0 0  0.042 0 0  0.043 0 0  0.044 0 0  0.045 0 0  0.04600000000000001 0 0  0.047 0 0  0.04800000000000001 0 0  0.049 0 0  0.05 0 0  0.051 0 0  0.052 0 0  0.05300000000000001 0 0  0.05400000000000001 0 0  0.055 0 0  0.05600000000000001 0 0  0.057 0 0  0.05800000000000001 0 0  0.059 0 0  0.06 0 0  0.06100000000000001 0 0  0.062 0 0  0.063 0 0  0.064 0 0  0.065 0 0  0.066 0 0  0.067 0 0  0.068 0 0  0.06900000000000001 0 0  0.07000000000000001 0 0  0.07100000000000001 0 0  0.07200000000000001 0 0  0.07300000000000001 0 0  0.07400000000000001 0 0  0.075 0 0  0.07600000000000001 0 0  0.077 0 0  0.07800000000000001 0 0  0.079 0 0  0.08 0 0  0.081 0 0  0.08200000000000002 0 0  0.083 0 0  0.08400000000000001 0 0  0.08500000000000001 0 0  0.08599999999999999 0 0  0.08700000000000001 0 0  0.08800000000000001 0 0  0.08900000000000001 0 0  0.09 0 0  0.091 0 0  0.09200000000000001 0 0  0.09300000000000001 0 0  0.094 0 0  0.095 0 0  0.09600000000000002 0 0  0.09700000000000002 0 0  0.098 0 0  0.099 0 0  0.1 0 0  </DataArray>
</Points>
<Cells>
<DataArray  type="UInt32"  Name="connectivity"  format="ascii">0 1  1 2  2 3  3 4  4 5  5 6  6 7  7 8  8 9  9 10  10 11  11 12  12 13  13 14  14 15  15 16  16 17  17 18  18 19  19 20  20 21  21 22  22 23  23 24  24 25  25 26  26 27  27 28  28 29  29 30  30 31  31 32  32 33  33 34  34 35  35 36  36 37  37 38  38 39  39 40  40 41  41 42  42 43  43 44  44 45  45 46  46 47  47 48  48 49  49 50  50 51  51 52  52 53  53 54  54 55  55 56  56 57  57 58  58 59  59 60  60 61  61 62  62 63  63 64  64 65  65 66  66 67  67 68  68 69  69 70  70 71  71 72  72 73  73 74  74 75  75 76  76 77  77 78  78 79  79 80  80 81  81 82  82 83  83 84  84 85  85 86  86 87  87 88  88 89  89 90  90 91  91 92  92 93  93 94  94 95  95 96  96 97  97 98  98 99  99 100  </DataArray>
<DataArray  type="UInt32"  Name="offsets"  format="ascii">2 4 6 8 10 12 14 16 18 20 22 24 26 28 30 32 34 36 38 40 42 44 46 48 50 52 54 56 58 60 62 64 66 68 70 72 74 76 78 80 82 84 86 88 90 92 94 96 98 100 102 104 106 108 110 112 114 116 118 120 122 124 126 128 130 132 134 136 138 140 142 144 146 148 150 152 154 156 158 160 162 164 166 168 170 172 174 176 178 180 182 184 186 188 190 192 194 196 198 200 </DataArray>
<DataArray  type="UInt8"  Name="types"  format="ascii">3 3 3 3 3 3 3 3 3 3 3 3 3 3 3 3 3 3 3 3 3 3 3 3 3 3 3 3 3 3 3 3 3 3 3 3 3 3 3 3 3 3 3 3 3 3 3 3 3 3 3 3 3 3 3 3 3 3 3 3 3 3 3 3 3 3 3 3 3 3 3 3 3 3 3 3 3 3 3 3 3 3 3 3 3 3 3 3 3 3 3 3 3 3 3 3 3 3 3 3 </DataArray>
</Cells>
<PointData  Scalars="f_14"> 
<DataArray  type="Float64"  Name="f_14"  format="ascii">1.7702268763643841e-19  2.3179788702732794e-19  4.2864810732525694e-19  8.8361581160655411e-19  1.8616564448410501e-18  3.9240505047905289e-18  8.2358667233888188e-18  1.7193564488789316e-17  3.5693701755940964e-17  7.3679602666243259e-17  1.5122015099673391e-16  3.0857360810687241e-16  6.2600137890710704e-16  1.2625250024639214e-15  2.5312418784303602e-15  5.0447193743794479e-15  9.9938032433461636e-15  1.9678667033610149e-14  3.8513440844458014e-14  7.4913720924814499e-14  1.4481830314067815e-13  2.7821414512423558e-13  5.3114030348933648e-13  1.0076141249829809e-12  1.8993929991565243e-12  3.5575556068528601e-12  6.6204201684933988e-12  1.2240443522642299e-11  2.2483675225057587e-11  4.1027670511967490e-11  7.4371535354279387e-11  1.3391769612027160e-10  2.3952542064635673e-10  4.2552869980055437e-10  7.5084620868859108e-10  1.3158289101921320e-09  2.2901065328326884e-09  3.9582338669710693e-09  6.7938905155985569e-09  1.1579477327802092e-08  1.9597237562387932e-08  3.2932037811931407e-08  5.4946845747575823e-08  9.1022786521172370e-08  1.4970065717143049e-07  2.4442565065507370e-07  3.9618943145449803e-07  6.3749363279769277e-07  1.0182391788244187e-06  1.6143927238971177e-06  2.5406146954335859e-06  3.9684763536914418e-06  6.1524727255024100e-06  9.4667834401434889e-06  1.4456674250223960e-05  2.1909595948382053e-05  3.2952445501338598e-05  4.9183114995848354e-05  7.2846355657837667e-05  1.0706608531287530e-04  1.5614848622675869e-04  2.2597244224970860e-04  3.2448585234445235e-04  4.6232786244633235e-04  6.5359773275224322e-04  9.1679048172131584e-04  1.2759171371886366e-03  1.7618228566586985e-03  2.4137088319280400e-03  3.2808533035493981e-03  4.4245128426055203e-03  5.9199671879054463e-03  7.8586495374019603e-03  1.0350279858680232e-02  1.3524892550108237e-02  1.7534623215019845e-02  2.2555094492100018e-02  2.8786220371073337e-02  3.6452235115041948e-02  4.5800749858207652e-02  5.7100650075853465e-02  7.0638672904293029e-02  8.6714546375402490e-02  1.0563463349398373e-01  1.2770410169617594e-01  1.5321772982798512e-01  1.8244956581299623e-01  2.1564175236975552e-01  2.5299293782498522e-01  2.9464677569593412e-01  3.4068108154216076e-01  3.9109825051119845e-01  4.4581753744026392e-01  5.0466975910136880e-01  5.6739489401287779e-01  6.3364293150676010e-01  7.0297816437907845e-01  7.7488693777956408e-01  8.4878867308876660e-01  9.2404979326538994e-01  1.0000000000000000e+00  </DataArray> 
</PointData> 
</Piece>
</UnstructuredGrid>
</VTKFile>