<?xml version="1.0"?>
<VTKFile type="UnstructuredGrid"  version="0.1"  >
<UnstructuredGrid>
<Piece  NumberOfPoints="101" NumberOfCells="100">
<Points>
<DataArray  type="Float64"  NumberOfComponents="3"  format="ascii">0 0 0  0.001 0 0  0.002 0 0  0.003 0 0  0.004 0 0  0.005 0 0  0.006000000000000001 0 0  0.007000000000000001 0 0  0.008 0 0  0.009000000000000001 0 0  0.01 0 0  0.011 0 0  0.012 0 0  0.013 0 0  0.014 0 0  0.015 0 0  0.016 0 0  0.017 0 0  0.018 0 0  0.019 0 0  0.02 0 0  0.021 0 0  0.022 0 0  0.023 0 0  0.024 0 0  0.025 0 0  0.026 0 0  0.027 0 0  0.028 0 0  0.029 0 0  0.03 0 0  0.031 0 0  0.032 0 0  0.033 0 0  0.034 0 0  0.035 0 0  0.036 0 0  0.03700000000000001 0 0  0.03800000000000001 0 0  0.03900000000000001 0 0  0.04 0 0  0.04100000000000001 0 0  0.042 0 0  0.043 0 0  0.044 0 0  0.045 0 0  0.04600000000000001 0 0  0.047 0 0  0.04800000000000001 0 0  0.049 0 0  0.05 0 0  0.051 0 0  0.052 0 0  0.05300000000000001 0 0  0.05400000000000001 0 0  0.055 0 0  0.05600000000000001 0 0  0.057 0 0  0.05800000000000001 0 0  0.059 0 0  0.06 0 0  0.06100000000000001 0 0  0.062 0 0  0.063 0 0  0.064 0 0  0.065 0 0  0.066 0 0  0.067 0 0  0.068 0 0  0.06900000000000001 0 0  0.07000000000000001 0 0  0.07100000000000001 0 0  0.07200000000000001 0 0  0.07300000000000001 0 0  0.07400000000000001 0 0  0.075 0 0  0.07600000000000001 0 0  0.077 0 0  0.07800000000000001 0 0  0.079 0 0  0.08 0 0  0.081 0 0  0.08200000000000002 0 0  0.083 0 0  0.08400000000000001 0 0  0.08500000000000001 0 0  0.08599999999999999 0 0  0.08700000000000001 0 0  0.08800000000000001 0 0  0.08900000000000001 0 0  0.09 0 0  0.091 0 0  0.09200000000000001 0 0  0.09300000000000001 0 0  0.094 0 0  0.095 0 0  0.09600000000000002 0 0  0.09700000000000002 0 0  0.098 0 0  0.099 0 0  0.1 0 0  </DataArray>
</Points>
<Cells>
<DataArray  type="UInt32"  Name="connectivity"  format="ascii">0 1  1 2  2 3  3 4  4 5  5 6  6 7  7 8  8 9  9 10  10 11  11 12  12 13  13 14  14 15  15 16  16 17  17 18  18 19  19 20  20 21  21 22  22 23  23 24  24 25  25 26  26 27  27 28  28 29  29 30  30 31  31 32  32 33  33 34  34 35  35 36  36 37  37 38  38 39  39 40  40 41  41 42  42 43  43 44  44 45  45 46  46 47  47 48  48 49  49 50  50 51  51 52  52 53  53 54  54 55  55 56  56 57  57 58  58 59  59 60  60 61  61 62  62 63  63 64  64 65  65 66  66 67  67 68  68 69  69 70  70 71  71 72  72 73  73 74  74 75  75 76  76 77  77 78  78 79  79 80  80 81  81 82  82 83  83 84  84 85  85 86  86 87  87 88  88 89  89 90  90 91  91 92  92 93  93 94  94 95  95 96  96 97  97 98  98 99  99 100  </DataArray>
<DataArray  type="UInt32"  Name="offsets"  format="ascii">2 4 6 8 10 12 14 16 18 20 22 24 26 28 30 32 34 36 38 40 42 44 46 48 50 52 54 56 58 60 62 64 66 68 70 72 74 76 78 80 82 84 86 88 90 92 94 96 98 100 102 104 106 108 110 112 114 116 118 120 122 124 126 128 130 132 134 136 138 140 142 144 146 148 150 152 154 156 158 160 162 164 166 168 170 172 174 176 178 180 182 184 186 188 190 192 194 196 198 200 </DataArray>
<DataArray  type="UInt8"  Name="types"  format="ascii">3 3 3 3 3 3 3 3 3 3 3 3 3 3 3 3 3 3 3 3 3 3 3 3 3 3 3 3 3 3 3 3 3 3 3 3 3 3 3 3 3 3 3 3 3 3 3 3 3 3 3 3 3 3 3 3 3 3 3 3 3 3 3 3 3 3 3 3 3 3 3 3 3 3 3 3 3 3 3 3 3 3 3 3 3 3 3 3 3 3 3 3 3 3 3 3 3 3 3 3 </DataArray>
</Cells>
<PointData  Scalars="f_14"> 
<DataArray  type="Float64"  Name="f_14"  format="ascii">1.0090541130199243e-54  2.4891194167915713e-54  1.1253948054977643e-53  5.2861769309230637e-53  2.4832111621644288e-52  1.1645212431445006e-51  5.4512126193498013e-51  2.5470230314612608e-50  1.1878174798100082e-49  5.5287406848785090e-49  2.5682921643893059e-48  1.1906545680813089e-47  5.5084719025876982e-47  2.5430840732270795e-46  1.1715318206058485e-45  5.3850549182132078e-45  2.4697160883111565e-44  1.1300618026768212e-43  5.1586049955032514e-43  2.3491626897677327e-42  1.0671356515375999e-41  4.8353281985808663e-41  2.1852705856664148e-40  9.8498491138245175e-40  4.4276181651120882e-39  1.9847098199946847e-38  8.8711325376444382e-38  3.9535208515183465e-37  1.7566222929159558e-36  7.7808545096876973e-36  3.4355361414743198e-35  1.5119672603500642e-34  6.6318038584560754e-34  2.8988219645169572e-33  1.2626106726531121e-32  5.4793755702545925e-32  2.3689731560349017e-31  1.0202542578545786e-30  4.3764857927380979e-30  1.8696436489791328e-29  7.9534098279788552e-29  3.3686164885101982e-28  1.4203431117693697e-27  5.9609493153976204e-27  2.4897285957769598e-26  1.0347460148529721e-25  4.2784656477727011e-25  1.7596998671852455e-24  7.1978914624015762e-24  2.9275470899793158e-23  1.1837112218922548e-22  4.7570488538108708e-22  1.8996829115205125e-21  7.5365504737511701e-21  2.9696324741425239e-20  1.1618655055229606e-19  4.5124246470077117e-19  1.7391452101025186e-18  6.6496188407408281e-18  2.5214350425887369e-17  9.4784054164948213e-17  3.5309872591652738e-16  1.3030381986719999e-15  4.7613935517485244e-15  1.7219912996452039e-14  6.1608273623551332e-14  2.1793945749669413e-13  7.6187569252312022e-13  2.6304524454714113e-12  8.9640491019772769e-12  3.0131176771789307e-11  9.9828958602212171e-11  3.2575740362308569e-10  1.0461034531430001e-09  3.3030687689097978e-09  1.0245099927907948e-08  3.1184180653795596e-08  9.3047567086848238e-08  2.7184937692890234e-07  7.7672919604490084e-07  2.1674933300785773e-06  5.8990732081760797e-06  1.5635071357371060e-05  4.0292018454592854e-05  1.0078957597936101e-04  2.4430203670662066e-04  5.7273962318073039e-04  1.2962282603603543e-03  2.8265374333034895e-03  5.9268262163904113e-03  1.1927073067221121e-02  2.2991296062975217e-02  4.2377146266161514e-02  7.4565031333739151e-02  1.2507776610649582e-01  1.9981170443062019e-01  3.0381071267050158e-01  4.3965082055960397e-01  6.0589413757474209e-01  7.9625242693166687e-01  1.0000000000000000e+00  </DataArray> 
</PointData> 
</Piece>
</UnstructuredGrid>
</VTKFile>