<?xml version="1.0"?>
<VTKFile type="UnstructuredGrid"  version="0.1"  >
<UnstructuredGrid>
<Piece  NumberOfPoints="101" NumberOfCells="100">
<Points>
<DataArray  type="Float64"  NumberOfComponents="3"  format="ascii">0 0 0  0.001 0 0  0.002 0 0  0.003 0 0  0.004 0 0  0.005 0 0  0.006000000000000001 0 0  0.007000000000000001 0 0  0.008 0 0  0.009000000000000001 0 0  0.01 0 0  0.011 0 0  0.012 0 0  0.013 0 0  0.014 0 0  0.015 0 0  0.016 0 0  0.017 0 0  0.018 0 0  0.019 0 0  0.02 0 0  0.021 0 0  0.022 0 0  0.023 0 0  0.024 0 0  0.025 0 0  0.026 0 0  0.027 0 0  0.028 0 0  0.029 0 0  0.03 0 0  0.031 0 0  0.032 0 0  0.033 0 0  0.034 0 0  0.035 0 0  0.036 0 0  0.03700000000000001 0 0  0.03800000000000001 0 0  0.03900000000000001 0 0  0.04 0 0  0.04100000000000001 0 0  0.042 0 0  0.043 0 0  0.044 0 0  0.045 0 0  0.04600000000000001 0 0  0.047 0 0  0.04800000000000001 0 0  0.049 0 0  0.05 0 0  0.051 0 0  0.052 0 0  0.05300000000000001 0 0  0.05400000000000001 0 0  0.055 0 0  0.05600000000000001 0 0  0.057 0 0  0.05800000000000001 0 0  0.059 0 0  0.06 0 0  0.06100000000000001 0 0  0.062 0 0  0.063 0 0  0.064 0 0  0.065 0 0  0.066 0 0  0.067 0 0  0.068 0 0  0.06900000000000001 0 0  0.07000000000000001 0 0  0.07100000000000001 0 0  0.07200000000000001 0 0  0.07300000000000001 0 0  0.07400000000000001 0 0  0.075 0 0  0.07600000000000001 0 0  0.077 0 0  0.07800000000000001 0 0  0.079 0 0  0.08 0 0  0.081 0 0  0.08200000000000002 0 0  0.083 0 0  0.08400000000000001 0 0  0.08500000000000001 0 0  0.08599999999999999 0 0  0.08700000000000001 0 0  0.08800000000000001 0 0  0.08900000000000001 0 0  0.09 0 0  0.091 0 0  0.09200000000000001 0 0  0.09300000000000001 0 0  0.094 0 0  0.095 0 0  0.09600000000000002 0 0  0.09700000000000002 0 0  0.098 0 0  0.099 0 0  0.1 0 0  </DataArray>
</Points>
<Cells>
<DataArray  type="UInt32"  Name="connectivity"  format="ascii">0 1  1 2  2 3  3 4  4 5  5 6  6 7  7 8  8 9  9 10  10 11  11 12  12 13  13 14  14 15  15 16  16 17  17 18  18 19  19 20  20 21  21 22  22 23  23 24  24 25  25 26  26 27  27 28  28 29  29 30  30 31  31 32  32 33  33 34  34 35  35 36  36 37  37 38  38 39  39 40  40 41  41 42  42 43  43 44  44 45  45 46  46 47  47 48  48 49  49 50  50 51  51 52  52 53  53 54  54 55  55 56  56 57  57 58  58 59  59 60  60 61  61 62  62 63  63 64  64 65  65 66  66 67  67 68  68 69  69 70  70 71  71 72  72 73  73 74  74 75  75 76  76 77  77 78  78 79  79 80  80 81  81 82  82 83  83 84  84 85  85 86  86 87  87 88  88 89  89 90  90 91  91 92  92 93  93 94  94 95  95 96  96 97  97 98  98 99  99 100  </DataArray>
<DataArray  type="UInt32"  Name="offsets"  format="ascii">2 4 6 8 10 12 14 16 18 20 22 24 26 28 30 32 34 36 38 40 42 44 46 48 50 52 54 56 58 60 62 64 66 68 70 72 74 76 78 80 82 84 86 88 90 92 94 96 98 100 102 104 106 108 110 112 114 116 118 120 122 124 126 128 130 132 134 136 138 140 142 144 146 148 150 152 154 156 158 160 162 164 166 168 170 172 174 176 178 180 182 184 186 188 190 192 194 196 198 200 </DataArray>
<DataArray  type="UInt8"  Name="types"  format="ascii">3 3 3 3 3 3 3 3 3 3 3 3 3 3 3 3 3 3 3 3 3 3 3 3 3 3 3 3 3 3 3 3 3 3 3 3 3 3 3 3 3 3 3 3 3 3 3 3 3 3 3 3 3 3 3 3 3 3 3 3 3 3 3 3 3 3 3 3 3 3 3 3 3 3 3 3 3 3 3 3 3 3 3 3 3 3 3 3 3 3 3 3 3 3 3 3 3 3 3 3 </DataArray>
</Cells>
<PointData  Scalars="f_14"> 
<DataArray  type="Float64"  Name="f_14"  format="ascii">6.3818399864740824e-05  6.4818433778073359e-05  6.7843195208755133e-05  7.2967084628918979e-05  8.0315510641215502e-05  9.0067012683449102e-05  1.0245625463281095e-04  1.1777791078882762e-04  1.3639147136204621e-04  1.5872699986766331e-04  1.8529187962668868e-04  2.1667859081349629e-04  2.5357356305374311e-04  2.9676715136067733e-04  3.4716478508495339e-04  4.0579934042179870e-04  4.7384478674340156e-04  5.5263115547347539e-04  6.4366087726239218e-04  7.4862652872159663e-04  8.6943002380322548e-04  1.0082032769370554e-03  1.1673303551410926e-03  1.3494711243938497e-03  1.5575863814990872e-03  1.7949644464092705e-03  2.0652491714462473e-03  2.3724693030376361e-03  2.7210691084777099e-03  3.1159401548606584e-03  3.5624540998015759e-03  4.0664963239807478e-03  4.6345002040935404e-03  5.2734817916882375e-03  5.9910746289096291e-03  6.7955643966782350e-03  7.6959230547236452e-03  8.7018420966163620e-03  9.8237645070249294e-03  1.1072914973441187e-02  1.2461327871196136e-02  1.4001872509411498e-02  1.5708275097317686e-02  1.7595136865873766e-02  1.9677947759624306e-02  2.1973095099016376e-02  2.4497866604763684e-02  2.7270447174059145e-02  3.0309908804248480e-02  3.3636193073675089e-02  3.7270085612429261e-02  4.1233182028220149e-02  4.5547844794991632e-02  5.0237150664540993e-02  5.5324828224466986e-02  6.0835185299304068e-02  6.6793025975562775e-02  7.3223557125278421e-02  8.0152284406075039e-02  8.7604897827967848e-02  9.5607147097273082e-02  1.0418470707494341e-01  1.1336303381912288e-01  1.2316721181821132e-01  1.3362179315958198e-01  1.4475062951848686e-01  1.5657669798963103e-01  1.6912192191833383e-01  1.8240698801694427e-01  1.9645116117303424e-01  2.1127209846661821e-01  2.2688566401204174e-01  2.4330574632410035e-01  2.6054407997536455e-01  2.7861007336071253e-01  2.9751064441402270e-01  3.1725006612939466e-01  3.3782982372395798e-01  3.5924848524044251e-01  3.8150158732461459e-01  4.0458153782534401e-01  4.2847753675354200e-01  4.5317551700120717e-01  4.7865810606423059e-01  5.0490460983390073e-01  5.3189101932393856e-01  5.5959004098459075e-01  5.8797115102523034e-01  6.1700067392492808e-01  6.4664188505962972e-01  6.7685513711814038e-01  7.0759800972066145e-01  7.3882548139662629e-01  7.7049012282676843e-01  8.0254231001131215e-01  8.3493045579549097e-01  8.6760125796870213e-01  9.0049996195773396e-01  9.3357063596061429e-01  9.6675645621840511e-01  1.0000000000000000e+00  </DataArray> 
</PointData> 
</Piece>
</UnstructuredGrid>
</VTKFile>