<?xml version="1.0"?>
<VTKFile type="UnstructuredGrid"  version="0.1"  >
<UnstructuredGrid>
<Piece  NumberOfPoints="101" NumberOfCells="100">
<Points>
<DataArray  type="Float64"  NumberOfComponents="3"  format="ascii">0 0 0  0.001 0 0  0.002 0 0  0.003 0 0  0.004 0 0  0.005 0 0  0.006000000000000001 0 0  0.007000000000000001 0 0  0.008 0 0  0.009000000000000001 0 0  0.01 0 0  0.011 0 0  0.012 0 0  0.013 0 0  0.014 0 0  0.015 0 0  0.016 0 0  0.017 0 0  0.018 0 0  0.019 0 0  0.02 0 0  0.021 0 0  0.022 0 0  0.023 0 0  0.024 0 0  0.025 0 0  0.026 0 0  0.027 0 0  0.028 0 0  0.029 0 0  0.03 0 0  0.031 0 0  0.032 0 0  0.033 0 0  0.034 0 0  0.035 0 0  0.036 0 0  0.03700000000000001 0 0  0.03800000000000001 0 0  0.03900000000000001 0 0  0.04 0 0  0.04100000000000001 0 0  0.042 0 0  0.043 0 0  0.044 0 0  0.045 0 0  0.04600000000000001 0 0  0.047 0 0  0.04800000000000001 0 0  0.049 0 0  0.05 0 0  0.051 0 0  0.052 0 0  0.05300000000000001 0 0  0.05400000000000001 0 0  0.055 0 0  0.05600000000000001 0 0  0.057 0 0  0.05800000000000001 0 0  0.059 0 0  0.06 0 0  0.06100000000000001 0 0  0.062 0 0  0.063 0 0  0.064 0 0  0.065 0 0  0.066 0 0  0.067 0 0  0.068 0 0  0.06900000000000001 0 0  0.07000000000000001 0 0  0.07100000000000001 0 0  0.07200000000000001 0 0  0.07300000000000001 0 0  0.07400000000000001 0 0  0.075 0 0  0.07600000000000001 0 0  0.077 0 0  0.07800000000000001 0 0  0.079 0 0  0.08 0 0  0.081 0 0  0.08200000000000002 0 0  0.083 0 0  0.08400000000000001 0 0  0.08500000000000001 0 0  0.08599999999999999 0 0  0.08700000000000001 0 0  0.08800000000000001 0 0  0.08900000000000001 0 0  0.09 0 0  0.091 0 0  0.09200000000000001 0 0  0.09300000000000001 0 0  0.094 0 0  0.095 0 0  0.09600000000000002 0 0  0.09700000000000002 0 0  0.098 0 0  0.099 0 0  0.1 0 0  </DataArray>
</Points>
<Cells>
<DataArray  type="UInt32"  Name="connectivity"  format="ascii">0 1  1 2  2 3  3 4  4 5  5 6  6 7  7 8  8 9  9 10  10 11  11 12  12 13  13 14  14 15  15 16  16 17  17 18  18 19  19 20  20 21  21 22  22 23  23 24  24 25  25 26  26 27  27 28  28 29  29 30  30 31  31 32  32 33  33 34  34 35  35 36  36 37  37 38  38 39  39 40  40 41  41 42  42 43  43 44  44 45  45 46  46 47  47 48  48 49  49 50  50 51  51 52  52 53  53 54  54 55  55 56  56 57  57 58  58 59  59 60  60 61  61 62  62 63  63 64  64 65  65 66  66 67  67 68  68 69  69 70  70 71  71 72  72 73  73 74  74 75  75 76  76 77  77 78  78 79  79 80  80 81  81 82  82 83  83 84  84 85  85 86  86 87  87 88  88 89  89 90  90 91  91 92  92 93  93 94  94 95  95 96  96 97  97 98  98 99  99 100  </DataArray>
<DataArray  type="UInt32"  Name="offsets"  format="ascii">2 4 6 8 10 12 14 16 18 20 22 24 26 28 30 32 34 36 38 40 42 44 46 48 50 52 54 56 58 60 62 64 66 68 70 72 74 76 78 80 82 84 86 88 90 92 94 96 98 100 102 104 106 108 110 112 114 116 118 120 122 124 126 128 130 132 134 136 138 140 142 144 146 148 150 152 154 156 158 160 162 164 166 168 170 172 174 176 178 180 182 184 186 188 190 192 194 196 198 200 </DataArray>
<DataArray  type="UInt8"  Name="types"  format="ascii">3 3 3 3 3 3 3 3 3 3 3 3 3 3 3 3 3 3 3 3 3 3 3 3 3 3 3 3 3 3 3 3 3 3 3 3 3 3 3 3 3 3 3 3 3 3 3 3 3 3 3 3 3 3 3 3 3 3 3 3 3 3 3 3 3 3 3 3 3 3 3 3 3 3 3 3 3 3 3 3 3 3 3 3 3 3 3 3 3 3 3 3 3 3 3 3 3 3 3 3 </DataArray>
</Cells>
<PointData  Scalars="f_14"> 
<DataArray  type="Float64"  Name="f_14"  format="ascii">1.6144535639280817e-04  1.6349944364483756e-04  1.6970164311045204e-04  1.8017226863242548e-04  1.9511351396660749e-04  2.1481196448995221e-04  2.3964212477709432e-04  2.7007097281763468e-04  3.0666355413362797e-04  3.5008963110110951e-04  4.0113140428249072e-04  4.6069232344034283e-04  5.2980700603035631e-04  6.0965228026636082e-04  7.0155936821955655e-04  8.0702722176691276e-04  9.2773702045348318e-04  1.0655678353990073e-03  1.2226134571863393e-03  1.4012003781521593e-03  1.6039069106037150e-03  1.8335834121658943e-03  2.0933735776921514e-03  2.3867367439387699e-03  2.7174711385116019e-03  3.0897379884760419e-03  3.5080863865262803e-03  3.9774787938161842e-03  4.5033170385665594e-03  5.0914686485164845e-03  5.7482933333454786e-03  6.4806694105560394e-03  7.2960199452030894e-03  8.2023383505520943e-03  9.2082131735369919e-03  1.0322851766101735e-02  1.1556102521503370e-02  1.2918475333816890e-02  1.4421159919624140e-02  1.6076041623622677e-02  1.7895714315104467e-02  1.9893489970387097e-02  2.2083404527794993e-02  2.4480219597146136e-02  2.7099419605348313e-02  2.9957203964082076e-02  3.3070473855046016e-02  3.6456813243228463e-02  4.0134463749473867e-02  4.4122293040484775e-02  4.8439756427553951e-02  5.3106851404863223e-02  5.8144064904173565e-02  6.3572313095100419e-02  6.9412873618781581e-02  7.5687310207345801e-02  8.2417389711822608e-02  8.9624991636525014e-02  9.7332010357913348e-02  1.0556025028980480e-01  1.1433131434375172e-01  1.2366648612254427e-01  1.3358660637512704e-01  1.4411194433165506e-01  1.5526206462679640e-01  1.6705569060650988e-01  1.7951056489710474e-01  1.9264330819414896e-01  2.0646927730142781e-01  2.2100242351537588e-01  2.3625515250696305e-01  2.5223818689970712e-01  2.6896043277818860e-01  2.8642885138513974e-01  3.0464833727596669e-01  3.2362160419667668e-01  3.4334907993403418e-01  3.6382881135491940e-01  3.8505638080511784e-01  4.0702483497603964e-01  4.2972462727143507e-01  4.5314357461533283e-01  4.7726682953792066e-01  5.0207686825866160e-01  5.2755349535672791e-01  5.5367386547904152e-01  5.8041252238734420e-01  6.0774145548934966e-01  6.3563017383697118e-01  6.6404579740877312e-01  6.9295316532612672e-01  7.2231496048520416e-01  7.5209184992196521e-01  7.8224264006687050e-01  8.1272444589223736e-01  8.4349287281000773e-01  8.7450221004317086e-01  9.0570563407200111e-01  9.3705542064828284e-01  9.6850316377831813e-01  1.0000000000000000e+00  </DataArray> 
</PointData> 
</Piece>
</UnstructuredGrid>
</VTKFile>