<?xml version="1.0"?>
<VTKFile type="UnstructuredGrid"  version="0.1"  >
<UnstructuredGrid>
<Piece  NumberOfPoints="101" NumberOfCells="100">
<Points>
<DataArray  type="Float64"  NumberOfComponents="3"  format="ascii">0 0 0  0.001 0 0  0.002 0 0  0.003 0 0  0.004 0 0  0.005 0 0  0.006000000000000001 0 0  0.007000000000000001 0 0  0.008 0 0  0.009000000000000001 0 0  0.01 0 0  0.011 0 0  0.012 0 0  0.013 0 0  0.014 0 0  0.015 0 0  0.016 0 0  0.017 0 0  0.018 0 0  0.019 0 0  0.02 0 0  0.021 0 0  0.022 0 0  0.023 0 0  0.024 0 0  0.025 0 0  0.026 0 0  0.027 0 0  0.028 0 0  0.029 0 0  0.03 0 0  0.031 0 0  0.032 0 0  0.033 0 0  0.034 0 0  0.035 0 0  0.036 0 0  0.03700000000000001 0 0  0.03800000000000001 0 0  0.03900000000000001 0 0  0.04 0 0  0.04100000000000001 0 0  0.042 0 0  0.043 0 0  0.044 0 0  0.045 0 0  0.04600000000000001 0 0  0.047 0 0  0.04800000000000001 0 0  0.049 0 0  0.05 0 0  0.051 0 0  0.052 0 0  0.05300000000000001 0 0  0.05400000000000001 0 0  0.055 0 0  0.05600000000000001 0 0  0.057 0 0  0.05800000000000001 0 0  0.059 0 0  0.06 0 0  0.06100000000000001 0 0  0.062 0 0  0.063 0 0  0.064 0 0  0.065 0 0  0.066 0 0  0.067 0 0  0.068 0 0  0.06900000000000001 0 0  0.07000000000000001 0 0  0.07100000000000001 0 0  0.07200000000000001 0 0  0.07300000000000001 0 0  0.07400000000000001 0 0  0.075 0 0  0.07600000000000001 0 0  0.077 0 0  0.07800000000000001 0 0  0.079 0 0  0.08 0 0  0.081 0 0  0.08200000000000002 0 0  0.083 0 0  0.08400000000000001 0 0  0.08500000000000001 0 0  0.08599999999999999 0 0  0.08700000000000001 0 0  0.08800000000000001 0 0  0.08900000000000001 0 0  0.09 0 0  0.091 0 0  0.09200000000000001 0 0  0.09300000000000001 0 0  0.094 0 0  0.095 0 0  0.09600000000000002 0 0  0.09700000000000002 0 0  0.098 0 0  0.099 0 0  0.1 0 0  </DataArray>
</Points>
<Cells>
<DataArray  type="UInt32"  Name="connectivity"  format="ascii">0 1  1 2  2 3  3 4  4 5  5 6  6 7  7 8  8 9  9 10  10 11  11 12  12 13  13 14  14 15  15 16  16 17  17 18  18 19  19 20  20 21  21 22  22 23  23 24  24 25  25 26  26 27  27 28  28 29  29 30  30 31  31 32  32 33  33 34  34 35  35 36  36 37  37 38  38 39  39 40  40 41  41 42  42 43  43 44  44 45  45 46  46 47  47 48  48 49  49 50  50 51  51 52  52 53  53 54  54 55  55 56  56 57  57 58  58 59  59 60  60 61  61 62  62 63  63 64  64 65  65 66  66 67  67 68  68 69  69 70  70 71  71 72  72 73  73 74  74 75  75 76  76 77  77 78  78 79  79 80  80 81  81 82  82 83  83 84  84 85  85 86  86 87  87 88  88 89  89 90  90 91  91 92  92 93  93 94  94 95  95 96  96 97  97 98  98 99  99 100  </DataArray>
<DataArray  type="UInt32"  Name="offsets"  format="ascii">2 4 6 8 10 12 14 16 18 20 22 24 26 28 30 32 34 36 38 40 42 44 46 48 50 52 54 56 58 60 62 64 66 68 70 72 74 76 78 80 82 84 86 88 90 92 94 96 98 100 102 104 106 108 110 112 114 116 118 120 122 124 126 128 130 132 134 136 138 140 142 144 146 148 150 152 154 156 158 160 162 164 166 168 170 172 174 176 178 180 182 184 186 188 190 192 194 196 198 200 </DataArray>
<DataArray  type="UInt8"  Name="types"  format="ascii">3 3 3 3 3 3 3 3 3 3 3 3 3 3 3 3 3 3 3 3 3 3 3 3 3 3 3 3 3 3 3 3 3 3 3 3 3 3 3 3 3 3 3 3 3 3 3 3 3 3 3 3 3 3 3 3 3 3 3 3 3 3 3 3 3 3 3 3 3 3 3 3 3 3 3 3 3 3 3 3 3 3 3 3 3 3 3 3 3 3 3 3 3 3 3 3 3 3 3 3 </DataArray>
</Cells>
<PointData  Scalars="f_14"> 
<DataArray  type="Float64"  Name="f_14"  format="ascii">2.4060573695071666e-18  3.0699698382260380e-18  5.4119861781748328e-18  1.0658940328431909e-17  2.1526038425393145e-17  4.3553607606398112e-17  8.7791891331344400e-17  1.7606441960824540e-16  3.5117809755647807e-16  6.9658589284399620e-16  1.3740090790063902e-15  2.6949696034780098e-15  5.2559399489945336e-15  1.0192069273412321e-14  1.9650474495311860e-14  3.7667403581496427e-14  7.1783324656905295e-14  1.3599720128722092e-13  2.5613456048284889e-13  4.7953632444203799e-13  8.9242820105110476e-13  1.6508471653537761e-12  3.0353281711948713e-12  5.5469349695765767e-12  1.0074711467289412e-11  1.8185607728409371e-11  3.2622878569404774e-11  5.8156688248236834e-11  1.0302526199195981e-10  1.8135865601908909e-10  3.1722490202398717e-10  5.5133390216968389e-10  9.5206083329207244e-10  1.6334337394900997e-09  2.7842584246504711e-09  4.7149085399679198e-09  7.9319025756910526e-09  1.3255821690478070e-08  2.2006253024006472e-08  3.6289491075698053e-08  5.9442399311329179e-08  9.6711476392907354e-08  1.5628298240378371e-07  2.5083223850377512e-07  3.9983355175884667e-07  6.3297392103466246e-07  9.9515298992994885e-07  1.5537400954009078e-06  2.4090105985397682e-06  3.7090143075840045e-06  5.6705572672398650e-06  8.6085246658042898e-06  1.2976457758979381e-05  1.9422140839504662e-05  2.8862970679609607e-05  4.2587078112669711e-05  6.2387544595089630e-05  9.0738582466854179e-05  1.3102417788303847e-04  1.8783134926468679e-04  2.6732173113977936e-04  3.7769648685531134e-04  5.2977036697097720e-04  7.3767079538933529e-04  1.0196768683472252e-03  1.3992107435623611e-03  1.9059897149377913e-03  2.5773409645529358e-03  3.4596722657835232e-03  4.6100805911727157e-03  6.0980666281754189e-03  8.0073068160293470e-03  1.0437416153204083e-02  1.3505615472250947e-02  1.7348197268146816e-02  2.2121665971350239e-02  2.8003413555779004e-02  3.5191781564419662e-02  4.3905358113955129e-02  5.4381365217338141e-02  6.6873009563065314e-02  8.1645699914626280e-02  9.8972076992443148e-02  1.1912585656102363e-01  1.4237455183689635e-01  1.6897121443918967e-01  1.9914540994913923e-01  2.3309371975206877e-01  2.7097012951520083e-01  3.1287672040537562e-01  3.5885511615685378e-01  4.0887915228312516e-01  4.6284921930051115e-01  5.2058868779319756e-01  5.8184274965822469e-01  6.4627990944958902e-01  7.1349623727585032e-01  7.8302235719921065e-01  8.5433300119901390e-01  9.2685881816866644e-01  1.0000000000000000e+00  </DataArray> 
</PointData> 
</Piece>
</UnstructuredGrid>
</VTKFile>