<?xml version="1.0"?>
<VTKFile type="UnstructuredGrid"  version="0.1"  >
<UnstructuredGrid>
<Piece  NumberOfPoints="101" NumberOfCells="100">
<Points>
<DataArray  type="Float64"  NumberOfComponents="3"  format="ascii">0 0 0  0.001 0 0  0.002 0 0  0.003 0 0  0.004 0 0  0.005 0 0  0.006000000000000001 0 0  0.007000000000000001 0 0  0.008 0 0  0.009000000000000001 0 0  0.01 0 0  0.011 0 0  0.012 0 0  0.013 0 0  0.014 0 0  0.015 0 0  0.016 0 0  0.017 0 0  0.018 0 0  0.019 0 0  0.02 0 0  0.021 0 0  0.022 0 0  0.023 0 0  0.024 0 0  0.025 0 0  0.026 0 0  0.027 0 0  0.028 0 0  0.029 0 0  0.03 0 0  0.031 0 0  0.032 0 0  0.033 0 0  0.034 0 0  0.035 0 0  0.036 0 0  0.03700000000000001 0 0  0.03800000000000001 0 0  0.03900000000000001 0 0  0.04 0 0  0.04100000000000001 0 0  0.042 0 0  0.043 0 0  0.044 0 0  0.045 0 0  0.04600000000000001 0 0  0.047 0 0  0.04800000000000001 0 0  0.049 0 0  0.05 0 0  0.051 0 0  0.052 0 0  0.05300000000000001 0 0  0.05400000000000001 0 0  0.055 0 0  0.05600000000000001 0 0  0.057 0 0  0.05800000000000001 0 0  0.059 0 0  0.06 0 0  0.06100000000000001 0 0  0.062 0 0  0.063 0 0  0.064 0 0  0.065 0 0  0.066 0 0  0.067 0 0  0.068 0 0  0.06900000000000001 0 0  0.07000000000000001 0 0  0.07100000000000001 0 0  0.07200000000000001 0 0  0.07300000000000001 0 0  0.07400000000000001 0 0  0.075 0 0  0.07600000000000001 0 0  0.077 0 0  0.07800000000000001 0 0  0.079 0 0  0.08 0 0  0.081 0 0  0.08200000000000002 0 0  0.083 0 0  0.08400000000000001 0 0  0.08500000000000001 0 0  0.08599999999999999 0 0  0.08700000000000001 0 0  0.08800000000000001 0 0  0.08900000000000001 0 0  0.09 0 0  0.091 0 0  0.09200000000000001 0 0  0.09300000000000001 0 0  0.094 0 0  0.095 0 0  0.09600000000000002 0 0  0.09700000000000002 0 0  0.098 0 0  0.099 0 0  0.1 0 0  </DataArray>
</Points>
<Cells>
<DataArray  type="UInt32"  Name="connectivity"  format="ascii">0 1  1 2  2 3  3 4  4 5  5 6  6 7  7 8  8 9  9 10  10 11  11 12  12 13  13 14  14 15  15 16  16 17  17 18  18 19  19 20  20 21  21 22  22 23  23 24  24 25  25 26  26 27  27 28  28 29  29 30  30 31  31 32  32 33  33 34  34 35  35 36  36 37  37 38  38 39  39 40  40 41  41 42  42 43  43 44  44 45  45 46  46 47  47 48  48 49  49 50  50 51  51 52  52 53  53 54  54 55  55 56  56 57  57 58  58 59  59 60  60 61  61 62  62 63  63 64  64 65  65 66  66 67  67 68  68 69  69 70  70 71  71 72  72 73  73 74  74 75  75 76  76 77  77 78  78 79  79 80  80 81  81 82  82 83  83 84  84 85  85 86  86 87  87 88  88 89  89 90  90 91  91 92  92 93  93 94  94 95  95 96  96 97  97 98  98 99  99 100  </DataArray>
<DataArray  type="UInt32"  Name="offsets"  format="ascii">2 4 6 8 10 12 14 16 18 20 22 24 26 28 30 32 34 36 38 40 42 44 46 48 50 52 54 56 58 60 62 64 66 68 70 72 74 76 78 80 82 84 86 88 90 92 94 96 98 100 102 104 106 108 110 112 114 116 118 120 122 124 126 128 130 132 134 136 138 140 142 144 146 148 150 152 154 156 158 160 162 164 166 168 170 172 174 176 178 180 182 184 186 188 190 192 194 196 198 200 </DataArray>
<DataArray  type="UInt8"  Name="types"  format="ascii">3 3 3 3 3 3 3 3 3 3 3 3 3 3 3 3 3 3 3 3 3 3 3 3 3 3 3 3 3 3 3 3 3 3 3 3 3 3 3 3 3 3 3 3 3 3 3 3 3 3 3 3 3 3 3 3 3 3 3 3 3 3 3 3 3 3 3 3 3 3 3 3 3 3 3 3 3 3 3 3 3 3 3 3 3 3 3 3 3 3 3 3 3 3 3 3 3 3 3 3 </DataArray>
</Cells>
<PointData  Scalars="f_14"> 
<DataArray  type="Float64"  Name="f_14"  format="ascii">4.8145134002607374e-04  4.8610146813845943e-04  5.0011747552299653e-04  5.2369675512913200e-04  5.5717004062437805e-04  6.0100402236248592e-04  6.5580500528073210e-04  7.2232360394470770e-04  8.0146046813420213e-04  8.9427303020105466e-04  1.0019832628609653e-03  1.1259864330420242e-03  1.2678608338440635e-03  1.4293784725114835e-03  1.6125166875414348e-03  1.8194706626000934e-03  2.0526667987718615e-03  2.3147768997986008e-03  2.6087331173678618e-03  2.9377435951811587e-03  3.3053087414884746e-03  3.7152380500392206e-03  4.1716673790124269e-03  4.6790765865041663e-03  5.2423074096371713e-03  5.8665814624011305e-03  6.5575182150326497e-03  7.3211528052178005e-03  8.1639535187799754e-03  9.0928387649491117e-03  1.0115193358958212e-02  1.1238883912756558e-02  1.2472273123255816e-02  1.3824232736937720e-02  1.5304154960060991e-02  1.6921962075330824e-02  1.8688114018961303e-02  2.0613613666797394e-02  2.2710009574796859e-02  2.4989395917927523e-02  2.7464409372630231e-02  3.0148222691639397e-02  3.3054534726334080e-02  3.6197556661089654e-02  3.9591994236461765e-02  4.3253025753591974e-02  4.7196275671069980e-02  5.1437783627681942e-02  5.5993968750048181e-02  6.0881589133078069e-02  6.6117696413398125e-02  7.1719585391316787e-02  7.7704738695337019e-02  8.4090766524491531e-02  9.0895341547612696e-02  9.8136129084740772e-02  1.0583071274386696e-01  1.1399651573569385e-01  1.2265071813962400e-01  1.3181017044525317e-01  1.4149130374473201e-01  1.5171003700187685e-01  1.6248168187328485e-01  1.7382084560430869e-01  1.8574133256794331e-01  1.9825604505684857e-01  2.1137688397722351e-01  2.2511465012745752e-01  2.3947894677380027e-01  2.5447808425914975e-01  2.7011898739892537e-01  2.8640710642939066e-01  3.0334633227829738e-01  3.2093891692497489e-01  3.3918539960672112e-01  3.5808453961034348e-01  3.7763325636186079e-01  3.9782657749366301e-01  4.1865759552695830e-01  4.4011743375822188e-01  4.6219522188197032e-01  4.8487808181879155e-01  5.0815112414774333e-01  5.3199745546647215e-01  5.5639819692143244e-01  5.8133251406509179e-01  6.0677765810785289e-01  6.3270901854047157e-01  6.5910018700892758e-01  6.8592303222906315e-01  7.1314778563375081e-01  7.4074313735204733e-01  7.6867634202866542e-01  7.9691333390426400e-01  8.2541885049346442e-01  8.5415656411916119e-01  8.8308922048948779e-01  9.1217878343862324e-01  9.4138658489520655e-01  9.7067347909317991e-01  1.0000000000000000e+00  </DataArray> 
</PointData> 
</Piece>
</UnstructuredGrid>
</VTKFile>