<?xml version="1.0"?>
<VTKFile type="UnstructuredGrid"  version="0.1"  >
<UnstructuredGrid>
<Piece  NumberOfPoints="101" NumberOfCells="100">
<Points>
<DataArray  type="Float64"  NumberOfComponents="3"  format="ascii">0 0 0  0.001 0 0  0.002 0 0  0.003 0 0  0.004 0 0  0.005 0 0  0.006000000000000001 0 0  0.007000000000000001 0 0  0.008 0 0  0.009000000000000001 0 0  0.01 0 0  0.011 0 0  0.012 0 0  0.013 0 0  0.014 0 0  0.015 0 0  0.016 0 0  0.017 0 0  0.018 0 0  0.019 0 0  0.02 0 0  0.021 0 0  0.022 0 0  0.023 0 0  0.024 0 0  0.025 0 0  0.026 0 0  0.027 0 0  0.028 0 0  0.029 0 0  0.03 0 0  0.031 0 0  0.032 0 0  0.033 0 0  0.034 0 0  0.035 0 0  0.036 0 0  0.03700000000000001 0 0  0.03800000000000001 0 0  0.03900000000000001 0 0  0.04 0 0  0.04100000000000001 0 0  0.042 0 0  0.043 0 0  0.044 0 0  0.045 0 0  0.04600000000000001 0 0  0.047 0 0  0.04800000000000001 0 0  0.049 0 0  0.05 0 0  0.051 0 0  0.052 0 0  0.05300000000000001 0 0  0.05400000000000001 0 0  0.055 0 0  0.05600000000000001 0 0  0.057 0 0  0.05800000000000001 0 0  0.059 0 0  0.06 0 0  0.06100000000000001 0 0  0.062 0 0  0.063 0 0  0.064 0 0  0.065 0 0  0.066 0 0  0.067 0 0  0.068 0 0  0.06900000000000001 0 0  0.07000000000000001 0 0  0.07100000000000001 0 0  0.07200000000000001 0 0  0.07300000000000001 0 0  0.07400000000000001 0 0  0.075 0 0  0.07600000000000001 0 0  0.077 0 0  0.07800000000000001 0 0  0.079 0 0  0.08 0 0  0.081 0 0  0.08200000000000002 0 0  0.083 0 0  0.08400000000000001 0 0  0.08500000000000001 0 0  0.08599999999999999 0 0  0.08700000000000001 0 0  0.08800000000000001 0 0  0.08900000000000001 0 0  0.09 0 0  0.091 0 0  0.09200000000000001 0 0  0.09300000000000001 0 0  0.094 0 0  0.095 0 0  0.09600000000000002 0 0  0.09700000000000002 0 0  0.098 0 0  0.099 0 0  0.1 0 0  </DataArray>
</Points>
<Cells>
<DataArray  type="UInt32"  Name="connectivity"  format="ascii">0 1  1 2  2 3  3 4  4 5  5 6  6 7  7 8  8 9  9 10  10 11  11 12  12 13  13 14  14 15  15 16  16 17  17 18  18 19  19 20  20 21  21 22  22 23  23 24  24 25  25 26  26 27  27 28  28 29  29 30  30 31  31 32  32 33  33 34  34 35  35 36  36 37  37 38  38 39  39 40  40 41  41 42  42 43  43 44  44 45  45 46  46 47  47 48  48 49  49 50  50 51  51 52  52 53  53 54  54 55  55 56  56 57  57 58  58 59  59 60  60 61  61 62  62 63  63 64  64 65  65 66  66 67  67 68  68 69  69 70  70 71  71 72  72 73  73 74  74 75  75 76  76 77  77 78  78 79  79 80  80 81  81 82  82 83  83 84  84 85  85 86  86 87  87 88  88 89  89 90  90 91  91 92  92 93  93 94  94 95  95 96  96 97  97 98  98 99  99 100  </DataArray>
<DataArray  type="UInt32"  Name="offsets"  format="ascii">2 4 6 8 10 12 14 16 18 20 22 24 26 28 30 32 34 36 38 40 42 44 46 48 50 52 54 56 58 60 62 64 66 68 70 72 74 76 78 80 82 84 86 88 90 92 94 96 98 100 102 104 106 108 110 112 114 116 118 120 122 124 126 128 130 132 134 136 138 140 142 144 146 148 150 152 154 156 158 160 162 164 166 168 170 172 174 176 178 180 182 184 186 188 190 192 194 196 198 200 </DataArray>
<DataArray  type="UInt8"  Name="types"  format="ascii">3 3 3 3 3 3 3 3 3 3 3 3 3 3 3 3 3 3 3 3 3 3 3 3 3 3 3 3 3 3 3 3 3 3 3 3 3 3 3 3 3 3 3 3 3 3 3 3 3 3 3 3 3 3 3 3 3 3 3 3 3 3 3 3 3 3 3 3 3 3 3 3 3 3 3 3 3 3 3 3 3 3 3 3 3 3 3 3 3 3 3 3 3 3 3 3 3 3 3 3 </DataArray>
</Cells>
<PointData  Scalars="f_14"> 
<DataArray  type="Float64"  Name="f_14"  format="ascii">1.1587982746287775e-04  1.1747198703053741e-04  1.2228227365125639e-04  1.3041258747522282e-04  1.4203435232259076e-04  1.5739090885368186e-04  1.7680088046615662e-04  2.0066252697597970e-04  2.2945910486467543e-04  2.6376525616567586e-04  3.0425445081758308e-04  3.5170750943048937e-04  4.0702223479041307e-04  4.7122418096267563e-04  5.4547858844345505e-04  6.3110351234589525e-04  7.2958416799041230e-04  8.4258851439816644e-04  9.7198409096612944e-04  1.1198561159416695e-03  1.2885268471319843e-03  1.4805761955070508e-03  1.6988635709247843e-03  1.9465509260799157e-03  2.2271269499280323e-03  2.5444323452587449e-03  2.9026861068066796e-03  3.3065126963426812e-03  3.7609699896570532e-03  4.2715778473413381e-03  4.8443471369400172e-03  5.4858090085607956e-03  6.2030441996233469e-03  7.0037121173538129e-03  7.8960794201986869e-03  8.8890477918816806e-03  9.9921805747450049e-03  1.1215727902725200e-02  1.2570649949272473e-02  1.4068637882222415e-02  1.5722132096589209e-02  1.7544337278010951e-02  1.9549233834696204e-02  2.1751585224761599e-02  2.4166940699372912e-02  2.6811632980661245e-02  2.9702770397510195e-02  3.2858223012495011e-02  3.6296602289960157e-02  4.0037233878835635e-02  4.4100123114654992e-02  4.8505912883586251e-02  5.3275833537290526e-02  5.8431644601125494e-02  6.3995568079562040e-02  6.9990213231498871e-02  7.6438492764135169e-02  8.3363530476750769e-02  9.0788560474573468e-02  9.8736818167151810e-02  1.0723142336446334e-01  1.1629525588635663e-01  1.2595082420576029e-01  1.3622012775214035e-01  1.4712451360761319e-01  1.5868452843250866e-01  1.7091976655850522e-01  1.8384871528419172e-01  1.9748859849846012e-01  2.1185521983991459e-01  2.2696280667393495e-01  2.4282385623164571e-01  2.5944898530537286e-01  2.7684678493190057e-01  2.9502368151676461e-01  3.1398380585891122e-01  3.3372887152445729e-01  3.5425806399036397e-01  3.7556794193320414e-01  3.9765235197462950e-01  4.2050235811383346e-01  4.4410618697849591e-01  4.6844918991015705e-01  4.9351382276850325e-01  5.1927964419292760e-01  5.4572333290032415e-01  5.7281872442714177e-01  6.0053686754310642e-01  6.2884610037586042e-01  6.5771214609236883e-01  6.8709822778663199e-01  7.1696520202664149e-01  7.4727171031911688e-01  7.7797434756100270e-01  8.0902784636453962e-01  8.4038527597047108e-01  8.7199825430399580e-01  9.0381717158271457e-01  9.3579142375705859e-01  9.6786965395341973e-01  1.0000000000000000e+00  </DataArray> 
</PointData> 
</Piece>
</UnstructuredGrid>
</VTKFile>