<?xml version="1.0"?>
<VTKFile type="UnstructuredGrid"  version="0.1"  >
<UnstructuredGrid>
<Piece  NumberOfPoints="101" NumberOfCells="100">
<Points>
<DataArray  type="Float64"  NumberOfComponents="3"  format="ascii">0 0 0  0.001 0 0  0.002 0 0  0.003 0 0  0.004 0 0  0.005 0 0  0.006000000000000001 0 0  0.007000000000000001 0 0  0.008 0 0  0.009000000000000001 0 0  0.01 0 0  0.011 0 0  0.012 0 0  0.013 0 0  0.014 0 0  0.015 0 0  0.016 0 0  0.017 0 0  0.018 0 0  0.019 0 0  0.02 0 0  0.021 0 0  0.022 0 0  0.023 0 0  0.024 0 0  0.025 0 0  0.026 0 0  0.027 0 0  0.028 0 0  0.029 0 0  0.03 0 0  0.031 0 0  0.032 0 0  0.033 0 0  0.034 0 0  0.035 0 0  0.036 0 0  0.03700000000000001 0 0  0.03800000000000001 0 0  0.03900000000000001 0 0  0.04 0 0  0.04100000000000001 0 0  0.042 0 0  0.043 0 0  0.044 0 0  0.045 0 0  0.04600000000000001 0 0  0.047 0 0  0.04800000000000001 0 0  0.049 0 0  0.05 0 0  0.051 0 0  0.052 0 0  0.05300000000000001 0 0  0.05400000000000001 0 0  0.055 0 0  0.05600000000000001 0 0  0.057 0 0  0.05800000000000001 0 0  0.059 0 0  0.06 0 0  0.06100000000000001 0 0  0.062 0 0  0.063 0 0  0.064 0 0  0.065 0 0  0.066 0 0  0.067 0 0  0.068 0 0  0.06900000000000001 0 0  0.07000000000000001 0 0  0.07100000000000001 0 0  0.07200000000000001 0 0  0.07300000000000001 0 0  0.07400000000000001 0 0  0.075 0 0  0.07600000000000001 0 0  0.077 0 0  0.07800000000000001 0 0  0.079 0 0  0.08 0 0  0.081 0 0  0.08200000000000002 0 0  0.083 0 0  0.08400000000000001 0 0  0.08500000000000001 0 0  0.08599999999999999 0 0  0.08700000000000001 0 0  0.08800000000000001 0 0  0.08900000000000001 0 0  0.09 0 0  0.091 0 0  0.09200000000000001 0 0  0.09300000000000001 0 0  0.094 0 0  0.095 0 0  0.09600000000000002 0 0  0.09700000000000002 0 0  0.098 0 0  0.099 0 0  0.1 0 0  </DataArray>
</Points>
<Cells>
<DataArray  type="UInt32"  Name="connectivity"  format="ascii">0 1  1 2  2 3  3 4  4 5  5 6  6 7  7 8  8 9  9 10  10 11  11 12  12 13  13 14  14 15  15 16  16 17  17 18  18 19  19 20  20 21  21 22  22 23  23 24  24 25  25 26  26 27  27 28  28 29  29 30  30 31  31 32  32 33  33 34  34 35  35 36  36 37  37 38  38 39  39 40  40 41  41 42  42 43  43 44  44 45  45 46  46 47  47 48  48 49  49 50  50 51  51 52  52 53  53 54  54 55  55 56  56 57  57 58  58 59  59 60  60 61  61 62  62 63  63 64  64 65  65 66  66 67  67 68  68 69  69 70  70 71  71 72  72 73  73 74  74 75  75 76  76 77  77 78  78 79  79 80  80 81  81 82  82 83  83 84  84 85  85 86  86 87  87 88  88 89  89 90  90 91  91 92  92 93  93 94  94 95  95 96  96 97  97 98  98 99  99 100  </DataArray>
<DataArray  type="UInt32"  Name="offsets"  format="ascii">2 4 6 8 10 12 14 16 18 20 22 24 26 28 30 32 34 36 38 40 42 44 46 48 50 52 54 56 58 60 62 64 66 68 70 72 74 76 78 80 82 84 86 88 90 92 94 96 98 100 102 104 106 108 110 112 114 116 118 120 122 124 126 128 130 132 134 136 138 140 142 144 146 148 150 152 154 156 158 160 162 164 166 168 170 172 174 176 178 180 182 184 186 188 190 192 194 196 198 200 </DataArray>
<DataArray  type="UInt8"  Name="types"  format="ascii">3 3 3 3 3 3 3 3 3 3 3 3 3 3 3 3 3 3 3 3 3 3 3 3 3 3 3 3 3 3 3 3 3 3 3 3 3 3 3 3 3 3 3 3 3 3 3 3 3 3 3 3 3 3 3 3 3 3 3 3 3 3 3 3 3 3 3 3 3 3 3 3 3 3 3 3 3 3 3 3 3 3 3 3 3 3 3 3 3 3 3 3 3 3 3 3 3 3 3 3 </DataArray>
</Cells>
<PointData  Scalars="f_14"> 
<DataArray  type="Float64"  Name="f_14"  format="ascii">4.9881588704959643e-15  5.9167304932160282e-15  9.0284426140051604e-15  1.5408530510478976e-14  2.7255996485288669e-14  4.8593049802546113e-14  8.6541957703027813e-14  1.5354515490351088e-13  2.7116927277702549e-13  4.7656777351398375e-13  8.3338812026346009e-13  1.4500701150882509e-12  2.5103656395636483e-12  4.3239480518378100e-12  7.4098482988088630e-12  1.2633207091676675e-11  2.1428094841133859e-11  3.6158418227979015e-11  6.0699001983696968e-11  1.0136554362360863e-10  1.6839388668596928e-10  2.7827873189768279e-10  4.5744836776335065e-10  7.4800284602041627e-10  1.2166182806894268e-09  1.9682771762313382e-09  3.1673059442750138e-09  5.0694019521693263e-09  8.0700757508081991e-09  1.2777444339728777e-08  2.0120896894032518e-08  3.1512234203033473e-08  4.9083019984711138e-08  7.6031824018411610e-08  1.1712876555888343e-07  1.7944355413870252e-07  2.7338870346804557e-07  4.1420381961130916e-07  6.2405239370077861e-07  9.3496248784751917e-07  1.3929208422675500e-06  2.0635306623576028e-06  3.0397717285283927e-06  4.4525631553796603e-06  6.4850301893112303e-06  9.3916231225504103e-06  1.3523534726098272e-05  1.9362217754384120e-05  2.7563219638989837e-05  3.9013028449651469e-05  5.4902159698342126e-05  7.6818299442457113e-05  1.0686394032571250e-04  1.4780357993841192e-04  2.0324616105634632e-04  2.7786897487510004e-04  3.7768966215751085e-04  5.1039316053752451e-04  6.8572037322174280e-04  9.1592487773174192e-04  1.2163030477444713e-03  1.6058014181378904e-03  2.1077028788363873e-03  2.7503902461858054e-03  3.5681818651448261e-03  4.6022291125929387e-03  5.9014600234020657e-03  7.5235468328447488e-03  9.5358681842610832e-03  1.2016429338597133e-02  1.5054696282535350e-02  1.8752292594737940e-02  2.3223501807161918e-02  2.8595513366793508e-02  3.5008347776436514e-02  4.2614396686853913e-02  5.1577517199138320e-02  6.2071626894398872e-02  7.4278757468462214e-02  8.8386540441552114e-02  1.0458511811672248e-01  1.2306349636920789e-01  1.4400538224684986e-01  1.6758457772529620e-01  1.9396002998112546e-01  2.2327066667532552e-01  2.5563017027142532e-01  2.9112186657677935e-01  3.2979391777532296e-01  3.7165501767927228e-01  4.1667078553792081e-01  4.6476104370354049e-01  5.1579814349240105e-01  5.6960647301138345e-01  6.2596324148728921e-01  6.8460058828168247e-01  7.4520901338553724e-01  8.0744207228482412e-01  8.7092222447569667e-01  9.3524767450016644e-01  1.0000000000000000e+00  </DataArray> 
</PointData> 
</Piece>
</UnstructuredGrid>
</VTKFile>