<?xml version="1.0"?>
<VTKFile type="UnstructuredGrid"  version="0.1"  >
<UnstructuredGrid>
<Piece  NumberOfPoints="101" NumberOfCells="100">
<Points>
<DataArray  type="Float64"  NumberOfComponents="3"  format="ascii">0 0 0  0.001 0 0  0.002 0 0  0.003 0 0  0.004 0 0  0.005 0 0  0.006000000000000001 0 0  0.007000000000000001 0 0  0.008 0 0  0.009000000000000001 0 0  0.01 0 0  0.011 0 0  0.012 0 0  0.013 0 0  0.014 0 0  0.015 0 0  0.016 0 0  0.017 0 0  0.018 0 0  0.019 0 0  0.02 0 0  0.021 0 0  0.022 0 0  0.023 0 0  0.024 0 0  0.025 0 0  0.026 0 0  0.027 0 0  0.028 0 0  0.029 0 0  0.03 0 0  0.031 0 0  0.032 0 0  0.033 0 0  0.034 0 0  0.035 0 0  0.036 0 0  0.03700000000000001 0 0  0.03800000000000001 0 0  0.03900000000000001 0 0  0.04 0 0  0.04100000000000001 0 0  0.042 0 0  0.043 0 0  0.044 0 0  0.045 0 0  0.04600000000000001 0 0  0.047 0 0  0.04800000000000001 0 0  0.049 0 0  0.05 0 0  0.051 0 0  0.052 0 0  0.05300000000000001 0 0  0.05400000000000001 0 0  0.055 0 0  0.05600000000000001 0 0  0.057 0 0  0.05800000000000001 0 0  0.059 0 0  0.06 0 0  0.06100000000000001 0 0  0.062 0 0  0.063 0 0  0.064 0 0  0.065 0 0  0.066 0 0  0.067 0 0  0.068 0 0  0.06900000000000001 0 0  0.07000000000000001 0 0  0.07100000000000001 0 0  0.07200000000000001 0 0  0.07300000000000001 0 0  0.07400000000000001 0 0  0.075 0 0  0.07600000000000001 0 0  0.077 0 0  0.07800000000000001 0 0  0.079 0 0  0.08 0 0  0.081 0 0  0.08200000000000002 0 0  0.083 0 0  0.08400000000000001 0 0  0.08500000000000001 0 0  0.08599999999999999 0 0  0.08700000000000001 0 0  0.08800000000000001 0 0  0.08900000000000001 0 0  0.09 0 0  0.091 0 0  0.09200000000000001 0 0  0.09300000000000001 0 0  0.094 0 0  0.095 0 0  0.09600000000000002 0 0  0.09700000000000002 0 0  0.098 0 0  0.099 0 0  0.1 0 0  </DataArray>
</Points>
<Cells>
<DataArray  type="UInt32"  Name="connectivity"  format="ascii">0 1  1 2  2 3  3 4  4 5  5 6  6 7  7 8  8 9  9 10  10 11  11 12  12 13  13 14  14 15  15 16  16 17  17 18  18 19  19 20  20 21  21 22  22 23  23 24  24 25  25 26  26 27  27 28  28 29  29 30  30 31  31 32  32 33  33 34  34 35  35 36  36 37  37 38  38 39  39 40  40 41  41 42  42 43  43 44  44 45  45 46  46 47  47 48  48 49  49 50  50 51  51 52  52 53  53 54  54 55  55 56  56 57  57 58  58 59  59 60  60 61  61 62  62 63  63 64  64 65  65 66  66 67  67 68  68 69  69 70  70 71  71 72  72 73  73 74  74 75  75 76  76 77  77 78  78 79  79 80  80 81  81 82  82 83  83 84  84 85  85 86  86 87  87 88  88 89  89 90  90 91  91 92  92 93  93 94  94 95  95 96  96 97  97 98  98 99  99 100  </DataArray>
<DataArray  type="UInt32"  Name="offsets"  format="ascii">2 4 6 8 10 12 14 16 18 20 22 24 26 28 30 32 34 36 38 40 42 44 46 48 50 52 54 56 58 60 62 64 66 68 70 72 74 76 78 80 82 84 86 88 90 92 94 96 98 100 102 104 106 108 110 112 114 116 118 120 122 124 126 128 130 132 134 136 138 140 142 144 146 148 150 152 154 156 158 160 162 164 166 168 170 172 174 176 178 180 182 184 186 188 190 192 194 196 198 200 </DataArray>
<DataArray  type="UInt8"  Name="types"  format="ascii">3 3 3 3 3 3 3 3 3 3 3 3 3 3 3 3 3 3 3 3 3 3 3 3 3 3 3 3 3 3 3 3 3 3 3 3 3 3 3 3 3 3 3 3 3 3 3 3 3 3 3 3 3 3 3 3 3 3 3 3 3 3 3 3 3 3 3 3 3 3 3 3 3 3 3 3 3 3 3 3 3 3 3 3 3 3 3 3 3 3 3 3 3 3 3 3 3 3 3 3 </DataArray>
</Cells>
<PointData  Scalars="f_14"> 
<DataArray  type="Float64"  Name="f_14"  format="ascii">1.1268170974990050e-03  1.1353536332908596e-03  1.1610534387154210e-03  1.2041875616162147e-03  1.2652092586686382e-03  1.3447562535819156e-03  1.4436538841074474e-03  1.5629191232178752e-03  1.7037654554126363e-03  1.8676085845331114e-03  2.0560729447040259e-03  2.2709989810317196e-03  2.5144511614632551e-03  2.7887266757272758e-03  3.0963647715282067e-03  3.4401566721464737e-03  3.8231560133125159e-03  4.2486897306825509e-03  4.7203693224685227e-03  5.2421024047903083e-03  5.8181044701611255e-03  6.4529107522312687e-03  7.1513880925539444e-03  7.9187466977618803e-03  8.7605516682247066e-03  9.6827341720735222e-03  1.0691602131517017e-02  1.1793850281726720e-02  1.2996569456338087e-02  1.4307254947905612e-02  1.5733813786575051e-02  1.7284570775910151e-02  1.8968273121351898e-02  2.0794093484315646e-02  2.2771631293563493e-02  2.4910912145344015e-02  2.7222385124982471e-02  2.9716917885240252e-02  3.2405789320944511e-02  3.5300679685209231e-02  3.8413658000110283e-02  4.1757166624005908e-02  4.5344002848866131e-02  4.9187297414026943e-02  5.3300489837733285e-02  5.7697300484683835e-02  6.2391699306511846e-02  6.7397871212685340e-02  7.2730178051623309e-02  7.8403117205796763e-02  8.4431276830109717e-02  9.0829287789775087e-02  9.7611772382059939e-02  1.0479328995546364e-01  1.1238827956990448e-01  1.2041099987207433e-01  1.2887546639101963e-01  1.3779538648993223e-01  1.4718409224079482e-01  1.5705447151859075e-01  1.6741889764096049e-01  1.7828915790709574e-01  1.8967638141601034e-01  2.0159096656874184e-01  2.1404250868120425e-01  2.2703972815400436e-01  2.4059039966222556e-01  2.5470128284169052e-01  2.6937805495825468e-01  2.8462524605300943e-01  3.0044617705866189e-01  3.1684290138063292e-01  3.3381615043041118e-01  3.5136528358832536e-01  3.6948824305807454e-01  3.8818151405607887e-01  4.0744009075499943e-01  4.2725744837270779e-01  4.4762552176571685e-01  4.6853469084972954e-01  4.8997377312985296e-01  5.1193002357931305e-01  5.3438914205864319e-01  5.5733528841756386e-01  5.8075110536961438e-01  6.0461774917541544e-01  6.2891492811477789e-01  6.5362094867117793e-01  6.7871276929492574e-01  7.0416606155426864e-01  7.2995527842711627e-01  7.5605372943075200e-01  7.8243366223323174e-01  8.0906635033879559e-01  8.3592218639099125e-01  8.6297078059186860e-01  8.9018106369400674e-01  9.1752139398472188e-01  9.4495966764895989e-01  9.7246343186945094e-01  1.0000000000000000e+00  </DataArray> 
</PointData> 
</Piece>
</UnstructuredGrid>
</VTKFile>