<?xml version="1.0"?>
<VTKFile type="UnstructuredGrid"  version="0.1"  >
<UnstructuredGrid>
<Piece  NumberOfPoints="101" NumberOfCells="100">
<Points>
<DataArray  type="Float64"  NumberOfComponents="3"  format="ascii">0 0 0  0.001 0 0  0.002 0 0  0.003 0 0  0.004 0 0  0.005 0 0  0.006000000000000001 0 0  0.007000000000000001 0 0  0.008 0 0  0.009000000000000001 0 0  0.01 0 0  0.011 0 0  0.012 0 0  0.013 0 0  0.014 0 0  0.015 0 0  0.016 0 0  0.017 0 0  0.018 0 0  0.019 0 0  0.02 0 0  0.021 0 0  0.022 0 0  0.023 0 0  0.024 0 0  0.025 0 0  0.026 0 0  0.027 0 0  0.028 0 0  0.029 0 0  0.03 0 0  0.031 0 0  0.032 0 0  0.033 0 0  0.034 0 0  0.035 0 0  0.036 0 0  0.03700000000000001 0 0  0.03800000000000001 0 0  0.03900000000000001 0 0  0.04 0 0  0.04100000000000001 0 0  0.042 0 0  0.043 0 0  0.044 0 0  0.045 0 0  0.04600000000000001 0 0  0.047 0 0  0.04800000000000001 0 0  0.049 0 0  0.05 0 0  0.051 0 0  0.052 0 0  0.05300000000000001 0 0  0.05400000000000001 0 0  0.055 0 0  0.05600000000000001 0 0  0.057 0 0  0.05800000000000001 0 0  0.059 0 0  0.06 0 0  0.06100000000000001 0 0  0.062 0 0  0.063 0 0  0.064 0 0  0.065 0 0  0.066 0 0  0.067 0 0  0.068 0 0  0.06900000000000001 0 0  0.07000000000000001 0 0  0.07100000000000001 0 0  0.07200000000000001 0 0  0.07300000000000001 0 0  0.07400000000000001 0 0  0.075 0 0  0.07600000000000001 0 0  0.077 0 0  0.07800000000000001 0 0  0.079 0 0  0.08 0 0  0.081 0 0  0.08200000000000002 0 0  0.083 0 0  0.08400000000000001 0 0  0.08500000000000001 0 0  0.08599999999999999 0 0  0.08700000000000001 0 0  0.08800000000000001 0 0  0.08900000000000001 0 0  0.09 0 0  0.091 0 0  0.09200000000000001 0 0  0.09300000000000001 0 0  0.094 0 0  0.095 0 0  0.09600000000000002 0 0  0.09700000000000002 0 0  0.098 0 0  0.099 0 0  0.1 0 0  </DataArray>
</Points>
<Cells>
<DataArray  type="UInt32"  Name="connectivity"  format="ascii">0 1  1 2  2 3  3 4  4 5  5 6  6 7  7 8  8 9  9 10  10 11  11 12  12 13  13 14  14 15  15 16  16 17  17 18  18 19  19 20  20 21  21 22  22 23  23 24  24 25  25 26  26 27  27 28  28 29  29 30  30 31  31 32  32 33  33 34  34 35  35 36  36 37  37 38  38 39  39 40  40 41  41 42  42 43  43 44  44 45  45 46  46 47  47 48  48 49  49 50  50 51  51 52  52 53  53 54  54 55  55 56  56 57  57 58  58 59  59 60  60 61  61 62  62 63  63 64  64 65  65 66  66 67  67 68  68 69  69 70  70 71  71 72  72 73  73 74  74 75  75 76  76 77  77 78  78 79  79 80  80 81  81 82  82 83  83 84  84 85  85 86  86 87  87 88  88 89  89 90  90 91  91 92  92 93  93 94  94 95  95 96  96 97  97 98  98 99  99 100  </DataArray>
<DataArray  type="UInt32"  Name="offsets"  format="ascii">2 4 6 8 10 12 14 16 18 20 22 24 26 28 30 32 34 36 38 40 42 44 46 48 50 52 54 56 58 60 62 64 66 68 70 72 74 76 78 80 82 84 86 88 90 92 94 96 98 100 102 104 106 108 110 112 114 116 118 120 122 124 126 128 130 132 134 136 138 140 142 144 146 148 150 152 154 156 158 160 162 164 166 168 170 172 174 176 178 180 182 184 186 188 190 192 194 196 198 200 </DataArray>
<DataArray  type="UInt8"  Name="types"  format="ascii">3 3 3 3 3 3 3 3 3 3 3 3 3 3 3 3 3 3 3 3 3 3 3 3 3 3 3 3 3 3 3 3 3 3 3 3 3 3 3 3 3 3 3 3 3 3 3 3 3 3 3 3 3 3 3 3 3 3 3 3 3 3 3 3 3 3 3 3 3 3 3 3 3 3 3 3 3 3 3 3 3 3 3 3 3 3 3 3 3 3 3 3 3 3 3 3 3 3 3 3 </DataArray>
</Cells>
<PointData  Scalars="f_14"> 
<DataArray  type="Float64"  Name="f_14"  format="ascii">9.5321792348185041e-08  9.8648446867121129e-08  1.0884122779528332e-07  1.2655079113140670e-07  1.5290284810159478e-07  1.8956223349289881e-07  2.3882697200086736e-07  3.0375692028070578e-07  3.8834317215776911e-07  4.9772626134831751e-07  6.3847334471398576e-07  8.1892707135519221e-07  1.0496418190417933e-06  1.3439264995959716e-06  1.7185172997621013e-06  2.1944086465917647e-06  2.7978764919253986e-06  3.5617348379072508e-06  4.5268744267762557e-06  5.7441418586196637e-06  7.2766282575464542e-06  9.2024491671309076e-06  1.1618111814452724e-05  1.4642582436007062e-05  1.8422185202715076e-05  2.3136485599337420e-05  2.9005335069765612e-05  3.6297280465749591e-05  4.5339571417557735e-05  5.6530031201357649e-05  7.0351091945210334e-05  8.7386332920148297e-05  1.0833990089588972e-04  1.3405923362799018e-04  1.6556155081266647e-04  2.0406462039343005e-04  2.5102235075950710e-04  3.0816579966777146e-04  3.7755022684135922e-04  4.6160884698027505e-04  5.6321396080840106e-04  6.8574615082649061e-04  8.3317222229445853e-04  1.0101325449018009e-03  1.2220384025338302e-03  1.4751798831567772e-03  1.7768447335924462e-03  2.1354484602357738e-03  2.5606757720867718e-03  3.0636332326160203e-03  3.6570127082875118e-03  4.3552648711553546e-03  5.1747816290800535e-03  6.1340859194742893e-03  7.2540268125974236e-03  8.5579773319559623e-03  1.0072031818548509e-02  1.1825199051591949e-02  1.3849586703192243e-02  1.6180572063724998e-02  1.8856953347456771e-02  2.1921075296548648e-02  2.5418922271635478e-02  2.9400171577078919e-02  3.3918199449398119e-02  3.9030031970364150e-02  4.4796233184249870e-02  5.1280722933336707e-02  5.8550517406223468e-02  6.6675386145022789e-02  7.5727420299710066e-02  8.5780508262738739e-02  9.6909716467313403e-02  1.0919057508027931e-01  1.2269827054501983e-01  1.3750674939730784e-01  1.5368774044009995e-01  1.7130970516024918e-01  1.9043672912629450e-01  2.1112736993514769e-01  2.3343347998031660e-01  2.5739902479186266e-01  2.8305891984207038e-01  3.1043791041489399e-01  3.3954952030134627e-01  3.7039509561695594e-01  4.0296296986645924e-01  4.3722777544992769e-01  4.7314992508271153e-01  5.1067528408546436e-01  5.4973505121648036e-01  5.9024586172422899e-01  6.3211012168149538e-01  6.7521657754139619e-01  7.1944111937286370e-01  7.6464781055336573e-01  8.1069013099919851e-01  8.5741241548641023e-01  9.0465146344657110e-01  9.5223829199199161e-01  1.0000000000000000e+00  </DataArray> 
</PointData> 
</Piece>
</UnstructuredGrid>
</VTKFile>