<?xml version="1.0"?>
<VTKFile type="UnstructuredGrid"  version="0.1"  >
<UnstructuredGrid>
<Piece  NumberOfPoints="3576" NumberOfCells="17848">
<Points>
<DataArray  type="Float64"  NumberOfComponents="3"  format="ascii">1.5 -0.5 0.5  1.5 0.5 0.5  1.5 -0.4 0.5  1.5 -0.3 0.5  1.5 -0.2 0.5  1.5 -0.1 0.5  1.5 0 0.5  1.5 0.1 0.5  1.5 0.2 0.5  1.5 0.3 0.5  1.5 0.4 0.5  0.5 0.5 0.5  1.4 0.5 0.5  1.3 0.5 0.5  1.2 0.5 0.5  1.1 0.5 0.5  1 0.5 0.5  0.9 0.5 0.5  0.8 0.5 0.5  0.7 0.5 0.5  0.6 0.5 0.5  0.5 -0.5 0.5  0.5 0.4 0.5  0.5 0.3 0.5  0.5 0.2 0.5  0.5 0.1 0.5  0.5 0 0.5  0.5 -0.1 0.5  0.5 -0.2 0.5  0.5 -0.3 0.5  0.5 -0.4 0.5  0.6 -0.5 0.5  0.7 -0.5 0.5  0.8 -0.5 0.5  0.9 -0.5 0.5  1 -0.5 0.5  1.1 -0.5 0.5  1.2 -0.5 0.5  1.3 -0.5 0.5  1.4 -0.5 0.5  1.40829100765 -0.365993777863 0.5  1.40766017924 -0.257380055246 0.5  1.40966364614 -0.152941701806 0.5  1.41102378646 -0.0512317341497 0.5  1.41240224323 0.0495409937258 0.5  1.41296801521 0.150072287327 0.5  1.41270156391 0.252297614771 0.5  1.41990181832 0.352405341308 0.5  1.35449322909 0.417958836024 0.5  1.25481744755 0.410283744833 0.5  1.15222804984 0.410476587172 0.5  1.05100123018 0.411356521386 0.5  0.950387077015 0.412569476083 0.5  0.849912590934 0.413051459729 0.5  0.7477029761440001 0.412736557228 0.5  0.647597034498 0.419912892264 0.5  0.582043926398 0.354500259384 0.5  0.589720108574 0.254828401888 0.5  0.589527014008 0.152239341008 0.5  0.588645636276 0.0510084745312 0.5  0.587431294931 -0.0496103464136 0.5  0.58694872371 -0.150086735612 0.5  0.587263468273 -0.252296883136 0.5  0.58008710794 -0.352402941645 0.5  0.645499736495 -0.41795606909 0.5  0.745171582988 -0.41027989809 0.5  0.847760633856 -0.410473006474 0.5  0.9489926445420001 -0.411355236357 0.5  1.04959839114 -0.41254021321 0.5  1.14967961927 -0.41315417794 0.5  1.24857424958 -0.413205533335 0.5  1.33307729581 -0.419740785221 0.5  1.43487900948 0.434072835466 0.5  0.565928192179 0.43488263033 0.5  0.565117368887 -0.434071802147 0.5  1.30792179188 -0.320009890269 0.5  1.31696099705 -0.206562779165 0.5  1.31886121677 -0.102528746825 0.5  1.32360654725 -1.20839102971e-05 0.5  1.32617261527 0.10101170166 0.5  1.32687158326 0.201799107845 0.5  1.31764115771 0.313686721609 0.5  1.20558388221 0.319048732669 0.5  1.1025900317 0.31957883043 0.5  1.00035884217 0.323802619925 0.5  0.899236212865 0.326239777706 0.5  0.798297945725 0.326923447386 0.5  0.686339168543 0.317670686772 0.5  0.680999770603 0.205612846063 0.5  0.680476878036 0.102615041518 0.5  0.676228986211 0.000380783080488 0.5  0.673773692416 -0.10075166802 0.5  0.673080748005 -0.201697882016 0.5  0.68233016915 -0.313659935684 0.5  0.794388400551 -0.318998860879 0.5  0.897447310507 -0.319438774436 0.5  0.999688082868 -0.323485603002 0.5  1.10043581142 -0.325958633294 0.5  1.19967654049 -0.327414570253 0.5  1.23883993675 -0.25024163279 0.5  1.21703250709 -0.154732264015 0.5  1.23336291322 -0.0467476651528 0.5  1.23818360547 0.0534598138609 0.5  1.24198137463 0.153818982757 0.5  1.24972122509 0.24131676897 0.5  1.1552409243 0.218444971813 0.5  1.04741784878 0.234274665111 0.5  0.9469016208910001 0.238874460461 0.5  0.846351313714 0.242305104261 0.5  0.758788746809 0.249815512969 0.5  0.781592852168 0.155623042347 0.5  0.765596605967 0.0480151700592 0.5  0.760928941611 -0.0524173729801 0.5  0.75759261153 -0.153291948109 0.5  0.750166265143 -0.241137535013 0.5  0.844356516029 -0.217725923437 0.5  0.951982607061 -0.233013269409 0.5  1.05215504575 -0.237448903407 0.5  1.15229560757 -0.241429354959 0.5  1.15241137281 -0.0802230855964 0.5  1.14811673229 0.00696972524396 0.5  1.15325328714 0.107934543233 0.5  1.08073431945 0.154462933273 0.5  0.993280124862 0.150051247167 0.5  0.892081700869 0.154523078995 0.5  0.84529933694 0.08222168242199999 0.5  0.84965272245 -0.00486690480705 0.5  0.845320013483 -0.106314827994 0.5  0.917616001246 -0.152464389015 0.5  1.00464911377 -0.147670395843 0.5  1.05791262429 -0.0526734511368 0.5  1.05286850936 0.0606750185164 0.5  0.939237191747 0.055249772357 0.5  0.944637926759 -0.0581483170732 0.5  1.10607604522 -0.152362909159 0.5  0.998664063039 0.00127575566584 0.5  1.5 0.5 -0.5  1.5 -0.5 -0.5  1.5 0.4 -0.5  1.5 0.3 -0.5  1.5 0.2 -0.5  1.5 0.1 -0.5  1.5 0 -0.5  1.5 -0.1 -0.5  1.5 -0.2 -0.5  1.5 -0.3 -0.5  1.5 -0.4 -0.5  0.5 -0.5 -0.5  1.4 -0.5 -0.5  1.3 -0.5 -0.5  1.2 -0.5 -0.5  1.1 -0.5 -0.5  1 -0.5 -0.5  0.9 -0.5 -0.5  0.8 -0.5 -0.5  0.7 -0.5 -0.5  0.6 -0.5 -0.5  0.5 0.5 -0.5  0.5 -0.4 -0.5  0.5 -0.3 -0.5  0.5 -0.2 -0.5  0.5 -0.1 -0.5  0.5 0 -0.5  0.5 0.1 -0.5  0.5 0.2 -0.5  0.5 0.3 -0.5  0.5 0.4 -0.5  0.6 0.5 -0.5  0.7 0.5 -0.5  0.8 0.5 -0.5  0.9 0.5 -0.5  1 0.5 -0.5  1.1 0.5 -0.5  1.2 0.5 -0.5  1.3 0.5 -0.5  1.4 0.5 -0.5  1.40829100765 0.365993777863 -0.5  1.40820032508 0.257396935623 -0.5  1.41101401074 0.152983902747 -0.5  1.41219410245 0.0512683082988 -0.5  1.41287737151 -0.0495261452465 -0.5  1.41311438806 -0.150067712953 -0.5  1.41274029659 -0.252296404316 -0.5  1.41991044102 -0.352405071836 -0.5  1.35449683346 -0.417958723382 -0.5  1.25482150556 -0.410283618014 -0.5  1.15223073135 -0.410476503371 -0.5  1.05100259478 -0.41135647874 -0.5  0.950387554645 -0.412569461157 -0.5  0.8499127285119999 -0.413051455429 -0.5  0.747703011212 -0.412736556132 -0.5  0.647597042158 -0.419912892025 -0.5  0.5820439294899999 -0.354500259287 -0.5  0.589720111944 -0.254828401782 -0.5  0.5895270161790001 -0.15223934094 -0.5  0.588645637369 -0.051008474497 -0.5  0.587431295312 0.0496103464255 -0.5  0.58694872382 0.150086735615 -0.5  0.587263468301 0.252296883137 -0.5  0.580087107946 0.352402941645 -0.5  0.645499736498 0.41795606909 -0.5  0.7451715829909999 0.41027989809 -0.5  0.847760633857 0.410473006474 -0.5  0.948903700857 0.411392449789 -0.5  1.04937125118 0.412100985403 -0.5  1.14947822353 0.411991830102 -0.5  1.24850051688 0.412405308969 -0.5  1.33306254927 0.419580740347 -0.5  1.4348814549 -0.434072759043 -0.5  0.56592819433 -0.434882630262 -0.5  0.565117368889 0.434071802147 -0.5  1.30903599364 0.318744928079 -0.5  1.32243450831 0.205771979165 -0.5  1.32472789216 0.103369582265 -0.5  1.32589831844 0.00127503422576 -0.5  1.32692571144 -0.100454961685 -0.5  1.32709616634 -0.201626007219 -0.5  1.31769424188 -0.313650305976 -0.5  1.205624635 -0.31899792043 -0.5  1.10261808944 -0.319529172119 -0.5  1.00036927786 -0.323782156899 -0.5  0.899239331397 -0.326233465442 -0.5  0.7982987687899999 -0.326921785551 -0.5  0.686339335176 -0.317670362076 -0.5  0.680999929048 -0.205612491796 -0.5  0.680477009606 -0.102614725491 -0.5  0.676229037218 -0.000380658037515 -0.5  0.673773707695 0.100751705747 -0.5  0.673080751972 0.201697891819 -0.5  0.682330169924 0.313659937587 -0.5  0.794388401355 0.318998862904 -0.5  0.897136008305 0.319569023233 -0.5  0.998373600135 0.322561215278 -0.5  1.0991365798 0.320973552593 -0.5  1.20023494179 0.321842557247 -0.5  1.2443951621 0.244686844881 -0.5  1.23904108784 0.155867607922 -0.5  1.23859069161 0.0530586286238 -0.5  1.23972448692 -0.0506138022524 -0.5  1.24247915025 -0.152881948307 -0.5  1.24990369502 -0.241039643266 -0.5  1.15539552524 -0.217892966311 -0.5  1.04744558456 -0.233979750053 -0.5  0.946897570626 -0.238731906293 -0.5  0.846348969976 -0.242261377459 -0.5  0.758788605117 -0.249806061187 -0.5  0.781588780196 -0.15559009575 -0.5  0.765564868222 -0.0479614786303 -0.5  0.760862082584 0.0524986477232 -0.5  0.757549032473 0.153340752601 -0.5  0.750157550967 0.241147300004 -0.5  0.843922638125 0.217953024914 -0.5  0.949538009216 0.232741535363 -0.5  1.04590932771 0.233364582458 -0.5  1.15154566662 0.219766493225 -0.5  1.15178049165 0.107049372199 -0.5  1.14826973882 0.000722224464913 -0.5  1.15352135863 -0.105386844583 -0.5  1.08066253546 -0.153190551252 -0.5  0.993068794058 -0.149168874369 -0.5  0.891968108137 -0.154173809487 -0.5  0.845144878146 -0.0819045201136 -0.5  0.849169282566 0.00539692094582 -0.5  0.844608953179 0.106838903763 -0.5  0.915277081653 0.153111631584 -0.5  0.9973886159050001 0.148516511662 -0.5  1.05244562117 0.058899136179 -0.5  1.05175891304 -0.0574929646238 -0.5  0.938370417877 -0.0538817160597 -0.5  0.941906814114 0.0599865826313 -0.5  1.07981394461 0.153519219144 -0.5  0.99612044155 0.0018777595317 -0.5  0.5 -0.5 0.4  0.5 -0.5 0.3  0.5 -0.5 0.2  0.5 -0.5 0.1  0.5 -0.5 0  0.5 -0.5 -0.1  0.5 -0.5 -0.2  0.5 -0.5 -0.3  0.5 -0.5 -0.4  1.5 -0.5 0.4  1.5 -0.5 0.3  1.5 -0.5 0.2  1.5 -0.5 0.1  1.5 -0.5 0  1.5 -0.5 -0.1  1.5 -0.5 -0.2  1.5 -0.5 -0.3  1.5 -0.5 -0.4  0.579955742562 -0.5 0.352132381757  0.586913645751 -0.5 0.252636862452  0.586498005498 -0.5 0.150929288013  0.5865249839659999 -0.5 0.0505786618353  0.58717969545 -0.5 -0.0498416775323  0.588429226137 -0.5 -0.150740265347  0.588896680022 -0.5 -0.253171818467  0.580964925782 -0.5 -0.353149976893  1.35295321907 -0.5 -0.419442552982  1.25361085469 -0.5 -0.411792160482  1.15149345755 -0.5 -0.411595187922  1.05065780363 -0.5 -0.412065526432  0.949919157345 -0.5 -0.412672888766  0.848875092171 -0.5 -0.412345685245  0.746308744023 -0.5 -0.411626006878  0.646309136772 -0.5 -0.418867217893  1.40829098124 -0.5 0.365993745418  1.4076773273 -0.5 0.257402541271  1.40970657323 -0.5 0.152997994312  1.41106210993 -0.5 0.0512800259763  1.41211933976 -0.5 -0.0498910158407  1.41203840876 -0.5 -0.151268052946  1.41144348051 -0.5 -0.254087981879  1.41875293247 -0.5 -0.354033223403  0.645410112949 -0.5 0.417835811066  0.7451524335750001 -0.5 0.410236428213  0.84804167819 -0.5 0.410751036687  0.949511186051 -0.5 0.411870701509  1.05007514423 -0.5 0.41302758608  1.14996733912 -0.5 0.413471802037  1.24868198041 -0.5 0.413329660221  1.3330988164 -0.5 0.419765577303  0.5650731711019999 -0.5 0.433993638565  0.565454812511 -0.5 -0.434403438957  1.43434123031 -0.5 -0.434695155277  0.682392207987 -0.5 0.313901232303  0.673054471544 -0.5 0.202893962046  0.672928839012 -0.5 0.10258676279  0.674558181653 -0.5 0.00195146050618  0.678981134616 -0.5 -0.0999591823918  0.680020505422 -0.5 -0.203139256314  0.685431937458 -0.5 -0.316087873766  1.31610193156 -0.5 -
[...]
<PointData  Scalars="f_69"> 
<DataArray  type="Float64"  Name="f_69"  format="ascii">2.6000000000000000e+01  2.6000000000000000e+01  2.6000000000000000e+01  2.6000000000000000e+01  2.6000000000000000e+01  2.6000000000000000e+01  2.6000000000000000e+01  2.6000000000000000e+01  2.6000000000000000e+01  2.6000000000000000e+01  2.6000000000000000e+01  2.6000000000000000e+01  2.6000000000000000e+01  2.6000000000000000e+01  2.6000000000000000e+01  2.6000000000000000e+01  2.6000000000000000e+01  2.6000000000000000e+01  2.6000000000000000e+01  2.6000000000000000e+01  2.6000000000000000e+01  2.6000000000000000e+01  2.6000000000000000e+01  2.6000000000000000e+01  2.6000000000000000e+01  2.6000000000000000e+01  2.6000000000000000e+01  2.6000000000000000e+01  2.6000000000000000e+01  2.6000000000000000e+01  2.6000000000000000e+01  2.6000000000000000e+01  2.6000000000000000e+01  2.6000000000000000e+01  2.6000000000000000e+01  2.6000000000000000e+01  2.6000000000000000e+01  2.6000000000000000e+01  2.6000000000000000e+01  2.6000000000000000e+01  2.6000000000000000e+01  2.6000000000000000e+01  2.6000000000000000e+01  2.6000000000000000e+01  2.6000000000000000e+01  2.6000000000000000e+01  2.6000000000000000e+01  2.6000000000000000e+01  2.6000000000000000e+01  2.6000000000000000e+01  2.6000000000000000e+01  2.6000000000000000e+01  2.6000000000000000e+01  2.6000000000000000e+01  2.6000000000000000e+01  2.6000000000000000e+01  2.6000000000000000e+01  2.6000000000000000e+01  2.6000000000000000e+01  2.6000000000000000e+01  2.6000000000000000e+01  2.6000000000000000e+01  2.6000000000000000e+01  2.6000000000000000e+01  2.6000000000000000e+01  2.6000000000000000e+01  2.6000000000000000e+01  2.6000000000000000e+01  2.6000000000000000e+01  2.6000000000000000e+01  2.6000000000000000e+01  2.6000000000000000e+01  2.6000000000000000e+01  2.6000000000000000e+01  2.6000000000000000e+01  2.6000000000000000e+01  2.6000000000000000e+01  2.6000000000000000e+01  2.6000000000000000e+01  2.6000000000000000e+01  2.6000000000000000e+01  2.6000000000000000e+01  2.6000000000000000e+01  2.6000000000000000e+01  2.6000000000000000e+01  2.6000000000000000e+01  2.6000000000000000e+01  2.6000000000000000e+01  2.6000000000000000e+01  2.6000000000000000e+01  2.6000000000000000e+01  2.6000000000000000e+01  2.6000000000000000e+01  2.6000000000000000e+01  2.6000000000000000e+01  2.6000000000000000e+01  2.6000000000000000e+01  2.6000000000000000e+01  2.6000000000000000e+01  2.6000000000000000e+01  2.6000000000000000e+01  2.6000000000000000e+01  2.6000000000000000e+01  2.6000000000000000e+01  2.6000000000000000e+01  2.6000000000000000e+01  2.6000000000000000e+01  2.6000000000000000e+01  2.6000000000000000e+01  2.6000000000000000e+01  2.6000000000000000e+01  2.6000000000000000e+01  2.6000000000000000e+01  2.6000000000000000e+01  2.6000000000000000e+01  2.6000000000000000e+01  2.6000000000000000e+01  2.6000000000000000e+01  2.6000000000000000e+01  2.6000000000000000e+01  2.6000000000000000e+01  2.6000000000000000e+01  2.6000000000000000e+01  2.6000000000000000e+01  2.6000000000000000e+01  2.6000000000000000e+01  2.6000000000000000e+01  2.6000000000000000e+01  2.6000000000000000e+01  2.6000000000000000e+01  2.6000000000000000e+01  2.6000000000000000e+01  2.6000000000000000e+01  2.6000000000000000e+01  2.6000000000000000e+01  2.6000000000000000e+01  3.6891139271973015e-07  6.3163406710061887e-07  -4.0411504998323804e-08  -2.0626478700998865e-06  -2.0103464586667536e-06  -3.5716638898811024e-08  1.9797017570414182e-09  7.7399828956315680e-07  -2.3048419775674164e-08  6.4818979403190660e-07  3.2799417907870909e-07  4.8515572878618967e-07  5.6893418867372799e-07  6.3778226956133651e-09  -2.5336077943973589e-07  2.0729301465061850e-07  6.4904418953841019e-07  4.6719585401971294e-07  7.7758564062904974e-07  -2.7798361542644667e-08  1.9603853790223100e-07  1.1090459354976299e-06  5.4426711046203248e-07  6.0525340216387769e-07  7.6899063919473223e-07  5.4154439917522299e-07  5.7954611089656976e-07  9.2134442271122102e-07  9.5726512114265721e-07  7.4385288878164531e-08  4.5671394123142091e-07  -5.9442732048037555e-07  -2.2837292389460594e-06  -4.3980700301489587e-07  -3.7285417564682073e-07  9.5821313580092078e-07  1.0835525262825505e-06  -1.0768298441398577e-06  -2.0094951364449347e-06  -2.3614728686136298e-07  -6.6138859386503213e-07  -1.5686342223847503e-06  -7.2241691790717051e-07  1.1942776283560161e-07  -6.7241596480704980e-08  -1.6634879826921824e-07  -3.6249791652624672e-09  3.0595957716114296e-07  2.3930671986037620e-07  -2.3848925352242001e-07  2.5126573917423494e-07  3.2779208700789472e-07  3.7679344811219427e-07  1.5983070035849811e-07  2.1265039847936543e-07  3.7400351168723432e-07  5.3637579849642732e-07  -1.5748350774318969e-07  -1.5028309182500634e-07  6.3347807654277822e-07  -4.4162356859584437e-08  -2.3073125586809061e-08  -5.4632368397025109e-08  7.9605180398094879e-08  -1.0010535020730567e-06  -7.5096003860156648e-07  -1.7141849461564522e-07  -1.5678636707492501e-07  7.8982478851892676e-07  8.6982378419926969e-07  -9.7997587829116704e-07  -1.5939590499107408e-07  2.6614287117561556e-07  3.8926139389222115e-07  2.1645479012071201e-07  1.3619475867393441e-07  -3.9533280787840720e-07  3.8496030413826311e-07  1.1591206541869542e-07  6.0597547215015561e-07  -7.4398328451447399e-08  7.0175061861916109e-07  -2.6426106899974999e-07  7.0687747945012189e-07  5.0947975362431186e-07  -1.6438589439574932e-07  2.7620072563178153e-07  2.5178797940029727e-07  -8.3942418280093859e-07  -1.4322110959318745e-07  4.2178456058095494e-07  7.0114548502074257e-08  3.7664049391944485e-07  -4.6026097198327271e-08  -2.7207281670146657e-08  -2.0408963991519780e-07  7.0347247246830165e-07  2.7371879446249456e-07  -5.6596461186082827e-07  -1.7150688735636735e-06  -2.3298376415183382e-06  -6.6212838123570758e-07  1.7964923407751103e-07  5.2826576311948182e-07  2.3434315167870372e-07  8.4590349053746637e-08  5.3167546649418927e-07  4.7381677291662161e-07  -6.4566958773030569e-07  -1.8417482355955522e-07  -5.6617815554296658e-07  -5.3546991734515876e-07  3.8296320906300640e-08  -4.2012798810847543e-07  -6.8085521510614083e-07  -7.7242704120995083e-07  -3.7286913720454434e-07  6.2832989009891509e-08  -2.3469127100620660e-06  -9.7451934043502046e-07  -1.3733056079598814e-07  4.3382756684833899e-07  6.3015683668788682e-07  5.7793195526316391e-07  -2.8217288807426794e-07  -1.1617227045026918e-06  -4.9484011927048765e-07  3.1233288626464415e-08  9.4145811197572358e-08  7.8363903953452771e-07  4.1913497737550058e-07  4.7220391298370919e-07  -4.8492024829436457e-07  3.2693983492040794e-07  -2.0549122713334551e-07  5.3412692415629626e-07  4.0506984442818625e+00  -5.1335815606371717e-02  -6.0628249763831855e-04  4.9602242134095236e-03  -1.4249132461454084e-03  2.1498379524214281e-04  -3.6432692571860870e-05  7.3808583290416629e-06  -1.5101556330064214e-06  5.1793460854239175e+00  -7.2520767357662574e-01  -4.2554387098167362e-02  2.0086113021258341e-02  -3.8512512758703448e-03  4.6745270820905182e-04  -7.5317343035767148e-05  1.3177366145694729e-05  -2.5581802366091219e-06  1.2251042580669953e+00  -1.6766789699865850e-01  4.1374381459289081e-02  -2.1300061447314454e-03  -6.4578358907350363e-05  1.1289868629376831e-05  -3.5699283452901864e-06  1.8448076070908185e-06  -3.5885898217470221e-06  -3.0473373937693664e-06  -1.6777501012267173e-06  -1.7848109185026806e-06  -1.4168800873137863e-06  -1.4235898444064748e-06  -2.0604548720020094e-06  -2.4472793956311723e-06  1.6198078395267479e+00  -4.8263007756790038e-01  5.0182471096664953e-02  -2.6570973733093749e-03  -7.2743347001924514e-05  1.0744052936788145e-04  -2.3336696630604051e-05  2.7642155992707804e-06  7.5247524663822647e+00  6.4491383437875873e+00  7.0622847036745444e+00  6.8077295934080864e+00  6.8233148036589091e+00  7.2782622511825412e+00  6.9086511466763358e+00  7.8346903295300194e+00  1.0711735765260235e+01  -6.7655614697062296e-07  -1.1026926173481452e-06  -4.0936741620441142e-01  -6.2524282158749139e-02  2.1306457667082300e-02  -2.6884488680032005e-03  7.3542849354106901e-04  -1.0922657203506641e-04  1.4364380931499980e-05  1.7738659937927522e-05  1.3582798355305943e-05  1.1540990978844006e-05  4.5952184507959453e-06  9.2646698385902427e-06  1.0173774434438729e-05  6.7624621126113948e-02  -8.9946944043890240e-02  2.8343036820523599e-02  -6.5653058443703978e-03  6.5805390609555191e-04  -1.0198410387562797e-04  -1.7311954081721120e-01  -1.4874970654352099e-01  -1.5819164122429069e-01  4.7830053550337887e-03  -3.1488318579788699e-01  -3.0561334695917175e-01  3.3575721030167781e-02  -2.5517235041146944e-04  -7.5300036424955747e-04  5.9889488445698136e-05  -4.7679224158355054e-05  -2.4913156650664005e-05  -8.2220555526733510e-05  -2.4153675935198479e-05  -2.5586610748367484e-05  -6.7470503800427513e-05  -3.2984148677814601e-01  3.3906188767084400e-02  -3.9467791343760286e-03  -4.5210385945754836e-05  8.2828548149332511e-05  -2.0304984040113314e-01  -2.3741058848804292e-01  -2.3128624462111322e-01  -2.5321969699434610e-01  2.9803103999506184e-02  -2.5446658275756931e-03  2.0100024963024077e-04  1.0035878443332389e-05  1.7187741271539582e-04  6.3608987194782056e-03  -1.7413419104113574e-03  3.1783651918240369e-02  4.8968133575919226e-02  2.8771444268136032e-04  -4.3004568589849896e-04  3.5554964180792958e-05  5.7043682480246554e-05  -8.4177273914762978e-04  4.4918714283100980e-04  2.5397445225411919e-02  -3.0038975614923064e-03  4.3545573682633565e+00  -2.2520240997398994e-01  -3.4018109309288690e-02  6.6133526619045644e-03  -9.2950471806663442e-04  2.9711403308679661e-04  -5.7953410992555112e-05  1.0633642928692648e-05  -2.2790704768907966e-06  1.2733894876365313e+00  -2.5537292268201162e-01  2.0378067510183034e-02  -5.2585943125558077e-04  -9.0774380000221416e-05  4.6183860640235017e-05  -6.3938878257381876e-06  4.1080832934098097e-06  -1.1817337775576491e-06  -1.0265554716441620e-06  -8.8034903091316202e-07  -7.3415790495039180e-07  -1.2575294909535787e-06  -1.5775471846814928e-06  -1.5969872523607090e-06  -8.8902954767779747e-07  9.9484284118476074e-01  -1.4933529045621385e-01  2.0390222562433002e-02  -1.8737010008218983e-03  9.4026619562176679e-05  9.2601578893474833e-06  -3.8794547397309311e-06  7.3471741001155541e-07  8.1073209016792731e+00  6.1783829746439425e+00  7.1321169056744376e+00  6.9662814813670346e+00  7.2780929144569315e+00  7.0191039455102322e+00  6.6323754575189353e+00  6.3394494618521380e+00  -6.0920204504226476e-07  -1.0533995323908666e-07  9.5415243021300071e+00  -2.6234860515766286e-02  -5.7021258028530176e-02  1.2942790951899570e-02  -1.8023114873194277e-03  4.5831893749989931e-04  -6.3013232286572018e-05  9.4242315351581115e-06  8.4138748917969865e-06  5.5633272400152562e-06  6.0181559381350978e-06  4.7112936440080031e-06  7.8353066085909694e-06  8.6848649811767321e-06  -2.5293795067697339e-01  -4.7381214119024684e-02  9.5815655775891052e-03  -1.5232026258051117e-03  2.3640787974293993e-04  -3.7626930182729888e-05  5.4436439283857874e-01  6.6501638596604420e-02  -6.4320981445382105e-02  9.0351737918231090e-02  3.2728090980264274e-01  -1.4019829572397435e-01  1.3100445422024716e-02  -3.4708444554291144e-03  -3.4814826777106530e-05  6.6785476512404193e-05  -2.8831179234719496e-05  -4.6624058700571484e-06  -4.5479678058292168e-05  -4.6722931348781548e-05  -1.4977183519242279e-05  -6.1706924616179663e-05  -1.3942991291614754e-01  3.1898982666286713e-02  -1.2585364940758100e-03  -1.9329667398834872e-04  2.2674411272187815e-05  -1.0043737728755128e-01  -1.3915985287592325e-01  -1.7002476172972342e-01  -1.0922088831818079e-01  1.5654191213127007e-03  -1.4695370352867966e-03  5.0294510462505057e-04  1.3584782662672101e-04  1.4194178690232241e-04  1.8937900033344803e-02  -3.1151321668349374e-03  1.6354852235509938e-02  2.1498548601352783e-02  -2.6577051609998965e-04  1.0786042517285095e-04  3.0312836082310897e-04  1.6103776366065482e-05  -2.2553727838813098e-04  1.7522198463226862e-02  2.5857395832287852e-04  -1.7990299698975702e-03  5.5833745113658804e+00  -3.3111618526203923e-01  -2.4239597876285789e-02  1.1690233797927512e-02  -1.6170334178653345e-03  5.8690041352111840e-04  -1.2480206115744426e-04  2.4384362401909509e-05  -2.1293956700000102e-06  1.7407519913614138e+00  -3.0906287168695840e-01  3.5206950011897629e-02  -2.4235141176627861e-03  -1.0042824847434334e-04  1.5118303899738767e-04  -4.2004267956399229e-05  9.8077045876620773e-06  -2.0758412314873513e-06  -3.8722640213216549e-07  -1.2685590707465757e-06  -1.4522300100329848e-06  -2.7039520370451463e-06  -3.3885563056068058e-06  -2.8558732062680915e-06  -1.4861899751627303e-06  1.4352530197549345e+00  -2.9814985746228045e-01  3.0214914420766455e-02  -3.7143902644023283e-03  -3.1147306266435192e-05  1.5941680551751178e-04  -4.3682695926005997e-05  8.8910103095183961e-06  8.4434886338254103e+00  6.6063845905574157e+00  7.1565134604689620e+00  7.7006215665346858e+00  8.2211273031612695e+00  7.5246083877452135e+00  6.3243892571022409e+00  7.6550127454220851e+00  -2.7607144918695181e-06  -1.9227498035437000e-06  1.1151530999097071e+01  -1.8687802687894617e-01  -5.8077074994310404e-02  1.4329928119837493e-02  -2.2734720847681256e-03  9.7478379404595313e-04  -1.2629188966660799e-04  1.6545079255205614e-05  1.4824194314860567e-05  1.6825685294559817e-05  7.7046731318350679e-06  5.8709036056209770e-06  1.2788937461437171e-05  1.5695057729029830e-05  -3.5935493884937031e-01  -2.0048328677100383e-02  1.7447469979859975e-02  -3.3368776857035367e-03  1.0769640872241204e-03  -4.9591178275095681e-05  3.0283474395079585e-01  1.8714418357681320e-01  -2.5470602281342908e-01  -3.4755364542010320e-01  -1.2117875419182714e-01  -1.9595125094948487e-01  3.0118095893849006e-02  -6.5242685997081466e-03  -3.1748817371668919e-04  1.4728058531096524e-04  -6.5679418179715688e-05  -1.0631018213524947e-04  -9.3357301960151484e-05  -3.7353960876571479e-05  -1.5351889677611431e-05  -8.9312567341385881e-05  -1.5380984415316185e-01  3.7228562421166130e-02  -4.1305048018338243e-03  -7.2798190931415172e-05  7.2011544056039720e-05  -1.4736370940540910e-01  -2.1690039122296348e-01  -2.9985916435855842e-01  -1.7463188366574572e-01  1.2607952799883768e-03  -2.4276001144115538e-03  6.5640490213252967e-04  2.3951697606456845e-04  1.3315675762312951e-04  2.4119243074190611e-02  -3.0211416642486055e-03  3.4913630983652584e-02  3.6157977359182802e-02  -1.5234917626910395e-03  3.3281503087462982e-04  3.1761401975522304e-04  1.2705771168213922e-05  -1.8085269987065859e-04  2.7807615995461516e-02  1.4138957833217435e-03  -2.1556516803630014e-03  1.7014137920696251e+00  -5.6362131427793949e-01  4.9524318640768186e-02  -1.4023734208800016e-03  -4.6773267053883892e-04  4.7951642497881303e-05  -1.1076925419326292e-05  4.5378766521110653e-06  -2.9017973702100151e-07  -1.0549811282580998e-06  -1.7262347002332430e-06  -2.7056540155569724e-06  -4.1208096448397953e-06  -2.7277752668897601e-06  -1.8732656125046092e-06  -1.2795525138783840e-06  1.5255598230297385e+00  -3.8553997614087987e-01  3.3502061982483504e-02  -2.8188421740879851e-03  -3.2493665722245767e-04  2.7881507454563347e-04  -5.6552993160855954e-05  7.9777235339485308e-06  8.0955234144440436e+00  7.2412273292831868e+00  7.5694883816659058e+00  7.4247247475196740e+00  7.6870021862064952e+00  7.2532767596333825e+00  7.1072449271353868e+00  8.4426658482308881e+00  -7.9906406575973613e-07  -4.2125568358817911e-07  1.1479370695441080e+01  -1.8587673800003181e-02  -9.7959587299256357e-02  1.8238409035935026e-02  -2.3421599608425608e-03  1.0387211129706004e-03  -6.6185839316250497e-05  6.7729848840307177e-06  1.3559174052684744e-05  1.3589434123014194e-05  1.1812645411916948e-05  9.6097846320907359e-06  1.2068659916564140e-05  1.6179938405255874e-05  -9.4017356796250828e-01  -1.2030681308506105e-01  2.7970012878134137e-02  -5.3731632075346711e-03  8.8236124508177618e-04  -6.3524248818862483e-05  1.3731006865326442e-01  7.3614925906602860e-02  -2.4125700759503413e-01  -2.5466583538413923e-01  3.3596717443035704e-02  -2.5801148266051899e-01  1.6972233395026962e-02  -2.2363122825808769e-03  2.8469146990537107e-04  -2.9443333179786866e-05  -1.9899184608958868e-05  -5.4973483362087203e-05  -9.4654648987960003e-05  -2.5982632301459014e-05  -1.8309012981691158e-05  -6.5049761226286819e-05  -2.6593409665961776e-01  5.1840211920653703e-02  -1.5296512133011271e-03  -1.2168538929805909e-03  2.1355710960788097e-04  -1.7232580108993947e-01  -2.1309555365886446e-01  -2.8199696199618812e-01  -1.7974917665861631e-01  4.0811674060358578e-03  -2.4470270593129379e-03  5.1345775558986849e-04  7.7074751176753139e-05  1.3133583599137864e-04  3.2467360014564912e-02  -4.7464584878880185e-03  2.5572015057029870e-02  3.5162073195816636e-02  5.6197487326301715e-04  9.5450594032912760e-05  3.5281829779492297e-04  7.0954320857572362e-05  3.5295932478957947e-05  3.2728056390604936e-02  4.0048423918636331e-04  -1.8868803216347413e-03  1.8270615201816705e-04  3.6269432071861336e-05  -5.3612916235514245e-05  -5.9546855293207313e-05  2.6154102748961281e-04  4.9137036956816826e-04  -2.2035018539696559e-03  1.7691152250721640e-04  6.2789102573724740e-05  -1.0218701457898271e-05  2.9106990174550235e-04  4.5520838431980447e-04  3.0801171949682948e-04  2.2966520226968800e-04  4.8029464798192749e-05  5.5757345417900865e-03  3.5331868170769637e-02  1.9895269122663425e-02  6.2665667236163269e-03  1.8336097716992909e-02  2.7988293801635030e-02  1.5782223417974747e-02  -5.7111352137136145e-03  5.8929190580596065e-04  -7.0738793326566660e-03  -4.1159300557054171e-03  1.2482553998971153e-02  -2.4753244260362758e-03  3.0886609879397262e-02  1.5734390906374277e-04  -3.9141159118804116e-03  -2.0412949520426799e-03  -2.2753134906001583e-03  4.1748642317316313e-04  -1.4656620037500261e-03  3.9927590568419370e-04  1.8597810773968943e-04  5.1647547449251577e-03  2.4537520595887170e-02  -2.3407049614487295e-03  3.0082644855391263e-02  6.6009309373529146e-03  2.2379270030847085e-02  -4.2691355545055390e-03  -5.0247986984118722e-03  9.2799986804883137e-04  2.3797533048354430e-03  -2.2566285388634861e-03  -4.3093929357360741e-03  1.2702320678350379e-04  3.6976481752440279e-04  -1.7701110201747902e-03  1.1541789510887943e-04  -3.6554914299473575e-03  -1.7339158410987459e-03  -3.2919633014129729e-03  5.4241259086262317e-03  1.6739482631017894e-02  8.5748177389817961e-03  -7.1621445849564197e-03  -2.6234143244318561e-03  9.2729355468275914e-03  6.3200505010278156e-04  -4.2687370137159128e-03  -3.4049673904250760e-03  -5.0794834869041490e-03  1.0475436383779671e-02  -2.9542414807552930e-03  7.4735440214608649e-04  -2.2138222695699725e-03  1.3009230113766377e-02  -2.8486816161435750e-03  6.1949739495331039e-04  8.4007179722941450e-04  -9.1165953858174643e-07  4.0582391247459305e-02  2.6711990881759407e-02  1.8144569648698511e-02  1.2425250793992504e-02  -1.2760380139978782e-02  2.7931715368178300e-02  -1.8500995466666770e-03  -2.4373712213404918e-03  4.2680076584701110e-04  1.5561462892411237e-02  -2.6009767301862241e-01  -3.6050679500417071e-01  -1.1632116097116012e-01  -5.6213724041939794e-01  3.6279797705079005e-02  -1.7477739049718349e-01  -1.2277585429071018e-01  -1.2857241826530927e-01  -5.5620988693967210e-01  -3.7408896498028567e-02  -2.0553410698576272e-01  -2.1393250224457910e-01  4.0903280918633822e-02  -1.2962849568178667e-06  2.8556637020302623e-04  -1.6981773020950008e-05  -9.8107313876250526e-05  -6.8775467861209325e-06  5.2116986765763122e-04  -1.0659038937604579e-04  -1.4480610847214318e-05  6.2468634365273534e-04  4.8174649909856452e-04  -1.0784467584297637e-03  3.0113366617005506e-05  4.8749844904651075e-04  -4.8943010710610175e-03  -2.9011507021930306e-03  9.5141751050979422e-03  6.6090421956561853e-04  -4.6831012217051172e-03  4.2030811983059942e-04  1.7957601294331325e-04  1.5633323719762143e-02  7.4015851613555266e-03  2.6054807500870268e-02  6.6989930570722078e-01  1.1917662648456624e+00  9.1866980815491683e-01  9.