<?xml version="1.0"?>
<VTKFile type="UnstructuredGrid"  version="0.1"  >
<UnstructuredGrid>
<Piece  NumberOfPoints="101" NumberOfCells="100">
<Points>
<DataArray  type="Float64"  NumberOfComponents="3"  format="ascii">0 0 0  3e-08 0 0  6.000000000000001e-08 0 0  9e-08 0 0  1.2e-07 0 0  1.5e-07 0 0  1.8e-07 0 0  2.1e-07 0 0  2.4e-07 0 0  2.7e-07 0 0  3e-07 0 0  3.3e-07 0 0  3.6e-07 0 0  3.9e-07 0 0  4.200000000000001e-07 0 0  4.5e-07 0 0  4.800000000000001e-07 0 0  5.1e-07 0 0  5.4e-07 0 0  5.7e-07 0 0  6e-07 0 0  6.3e-07 0 0  6.6e-07 0 0  6.9e-07 0 0  7.2e-07 0 0  7.5e-07 0 0  7.799999999999999e-07 0 0  8.100000000000001e-07 0 0  8.400000000000001e-07 0 0  8.7e-07 0 0  9.000000000000001e-07 0 0  9.3e-07 0 0  9.600000000000001e-07 0 0  9.900000000000001e-07 0 0  1.02e-06 0 0  1.05e-06 0 0  1.08e-06 0 0  1.11e-06 0 0  1.14e-06 0 0  1.17e-06 0 0  1.2e-06 0 0  1.23e-06 0 0  1.26e-06 0 0  1.29e-06 0 0  1.32e-06 0 0  1.35e-06 0 0  1.38e-06 0 0  1.41e-06 0 0  1.44e-06 0 0  1.47e-06 0 0  1.5e-06 0 0  1.53e-06 0 0  1.56e-06 0 0  1.59e-06 0 0  1.62e-06 0 0  1.65e-06 0 0  1.68e-06 0 0  1.71e-06 0 0  1.74e-06 0 0  1.77e-06 0 0  1.8e-06 0 0  1.83e-06 0 0  1.86e-06 0 0  1.89e-06 0 0  1.92e-06 0 0  1.95e-06 0 0  1.98e-06 0 0  2.01e-06 0 0  2.04e-06 0 0  2.07e-06 0 0  2.1e-06 0 0  2.13e-06 0 0  2.16e-06 0 0  2.19e-06 0 0  2.22e-06 0 0  2.25e-06 0 0  2.28e-06 0 0  2.31e-06 0 0  2.34e-06 0 0  2.37e-06 0 0  2.4e-06 0 0  2.43e-06 0 0  2.46e-06 0 0  2.49e-06 0 0  2.52e-06 0 0  2.55e-06 0 0  2.58e-06 0 0  2.61e-06 0 0  2.64e-06 0 0  2.67e-06 0 0  2.7e-06 0 0  2.73e-06 0 0  2.76e-06 0 0  2.79e-06 0 0  2.82e-06 0 0  2.85e-06 0 0  2.88e-06 0 0  2.91e-06 0 0  2.94e-06 0 0  2.97e-06 0 0  3e-06 0 0  </DataArray>
</Points>
<Cells>
<DataArray  type="UInt32"  Name="connectivity"  format="ascii">0 1  1 2  2 3  3 4  4 5  5 6  6 7  7 8  8 9  9 10  10 11  11 12  12 13  13 14  14 15  15 16  16 17  17 18  18 19  19 20  20 21  21 22  22 23  23 24  24 25  25 26  26 27  27 28  28 29  29 30  30 31  31 32  32 33  33 34  34 35  35 36  36 37  37 38  38 39  39 40  40 41  41 42  42 43  43 44  44 45  45 46  46 47  47 48  48 49  49 50  50 51  51 52  52 53  53 54  54 55  55 56  56 57  57 58  58 59  59 60  60 61  61 62  62 63  63 64  64 65  65 66  66 67  67 68  68 69  69 70  70 71  71 72  72 73  73 74  74 75  75 76  76 77  77 78  78 79  79 80  80 81  81 82  82 83  83 84  84 85  85 86  86 87  87 88  88 89  89 90  90 91  91 92  92 93  93 94  94 95  95 96  96 97  97 98  98 99  99 100  </DataArray>
<DataArray  type="UInt32"  Name="offsets"  format="ascii">2 4 6 8 10 12 14 16 18 20 22 24 26 28 30 32 34 36 38 40 42 44 46 48 50 52 54 56 58 60 62 64 66 68 70 72 74 76 78 80 82 84 86 88 90 92 94 96 98 100 102 104 106 108 110 112 114 116 118 120 122 124 126 128 130 132 134 136 138 140 142 144 146 148 150 152 154 156 158 160 162 164 166 168 170 172 174 176 178 180 182 184 186 188 190 192 194 196 198 200 </DataArray>
<DataArray  type="UInt8"  Name="types"  format="ascii">3 3 3 3 3 3 3 3 3 3 3 3 3 3 3 3 3 3 3 3 3 3 3 3 3 3 3 3 3 3 3 3 3 3 3 3 3 3 3 3 3 3 3 3 3 3 3 3 3 3 3 3 3 3 3 3 3 3 3 3 3 3 3 3 3 3 3 3 3 3 3 3 3 3 3 3 3 3 3 3 3 3 3 3 3 3 3 3 3 3 3 3 3 3 3 3 3 3 3 3 </DataArray>
</Cells>
<PointData  Scalars="f_16"> 
<DataArray  type="Float64"  Name="f_16"  format="ascii">0.0000000000000000e+00  7.3814854609966578e+22  1.4743423168298361e+23  2.2066636761155237e+23  2.9332631792786057e+23  3.6523833049816385e+23  4.3623758039797184e+23  5.0617137278915769e+23  5.7489990539224808e+23  6.4229666925888849e+23  7.0824855528587615e+23  7.7265572408222787e+23  8.3543128823491907e+23  8.9650084856668683e+23  9.5580191950713935e+23  1.0132832730880198e+24  1.0689042262200325e+24  1.1226338917193134e+24  1.1744504099443904e+24  1.2243401748066991e+24  1.2722970652653580e+24  1.3183216911533834e+24  1.3624206602579238e+24  1.4046058719475536e+24  1.4448938412664406e+24  1.4833050562643243e+24  1.5198633703728747e+24  1.5545954308469137e+24  1.5875301436402470e+24  1.6186981745604435e+24  1.6481314861271804e+24  1.6758629092295742e+24  1.7019257484258352e+24  1.7263534195420923e+24  1.7491791180963088e+24  1.7704355169891291e+24  1.7901544918588437e+24  1.8083668724859122e+24  1.8251022186481714e+24  1.8403886188662427e+24  1.8542525105356852e+24  1.8667185200147552e+24  1.8778093213213091e+24  1.8875455121870487e+24  1.8959455063199115e+24  1.9030254408343064e+24  1.9087990979227136e+24  1.9132778399597851e+24  1.9164705573505929e+24  1.9183836285573588e+24  1.9190208918632680e+24  1.9183836285573575e+24  1.9164705573505913e+24  1.9132778399597829e+24  1.9087990979227112e+24  1.9030254408343038e+24  1.8959455063199088e+24  1.8875455121870460e+24  1.8778093213213062e+24  1.8667185200147523e+24  1.8542525105356814e+24  1.8403886188662378e+24  1.8251022186481658e+24  1.8083668724859060e+24  1.7901544918588370e+24  1.7704355169891219e+24  1.7491791180963011e+24  1.7263534195420843e+24  1.7019257484258263e+24  1.6758629092295643e+24  1.6481314861271692e+24  1.6186981745604314e+24  1.5875301436402336e+24  1.5545954308469000e+24  1.5198633703728621e+24  1.4833050562643112e+24  1.4448938412664277e+24  1.4046058719475418e+24  1.3624206602579117e+24  1.3183216911533719e+24  1.2722970652653476e+24  1.2243401748066883e+24  1.1744504099443809e+24  1.1226338917193052e+24  1.0689042262200249e+24  1.0132832730880134e+24  9.5580191950713438e+23  8.9650084856668267e+23  8.3543128823491544e+23  7.7265572408222573e+23  7.0824855528587427e+23  6.4229666925888701e+23  5.7489990539224768e+23  5.0617137278915742e+23  4.3623758039797157e+23  3.6523833049816452e+23  2.9332631792786091e+23  2.2066636761155247e+23  1.4743423168298437e+23  7.3814854609966964e+22  0.0000000000000000e+00  </DataArray> 
</PointData> 
</Piece>
</UnstructuredGrid>
</VTKFile>