<?xml version="1.0"?>
<VTKFile type="UnstructuredGrid"  version="0.1"  >
<UnstructuredGrid>
<Piece  NumberOfPoints="101" NumberOfCells="100">
<Points>
<DataArray  type="Float64"  NumberOfComponents="3"  format="ascii">0 0 0  3e-08 0 0  6.000000000000001e-08 0 0  9e-08 0 0  1.2e-07 0 0  1.5e-07 0 0  1.8e-07 0 0  2.1e-07 0 0  2.4e-07 0 0  2.7e-07 0 0  3e-07 0 0  3.3e-07 0 0  3.6e-07 0 0  3.9e-07 0 0  4.200000000000001e-07 0 0  4.5e-07 0 0  4.800000000000001e-07 0 0  5.1e-07 0 0  5.4e-07 0 0  5.7e-07 0 0  6e-07 0 0  6.3e-07 0 0  6.6e-07 0 0  6.9e-07 0 0  7.2e-07 0 0  7.5e-07 0 0  7.799999999999999e-07 0 0  8.100000000000001e-07 0 0  8.400000000000001e-07 0 0  8.7e-07 0 0  9.000000000000001e-07 0 0  9.3e-07 0 0  9.600000000000001e-07 0 0  9.900000000000001e-07 0 0  1.02e-06 0 0  1.05e-06 0 0  1.08e-06 0 0  1.11e-06 0 0  1.14e-06 0 0  1.17e-06 0 0  1.2e-06 0 0  1.23e-06 0 0  1.26e-06 0 0  1.29e-06 0 0  1.32e-06 0 0  1.35e-06 0 0  1.38e-06 0 0  1.41e-06 0 0  1.44e-06 0 0  1.47e-06 0 0  1.5e-06 0 0  1.53e-06 0 0  1.56e-06 0 0  1.59e-06 0 0  1.62e-06 0 0  1.65e-06 0 0  1.68e-06 0 0  1.71e-06 0 0  1.74e-06 0 0  1.77e-06 0 0  1.8e-06 0 0  1.83e-06 0 0  1.86e-06 0 0  1.89e-06 0 0  1.92e-06 0 0  1.95e-06 0 0  1.98e-06 0 0  2.01e-06 0 0  2.04e-06 0 0  2.07e-06 0 0  2.1e-06 0 0  2.13e-06 0 0  2.16e-06 0 0  2.19e-06 0 0  2.22e-06 0 0  2.25e-06 0 0  2.28e-06 0 0  2.31e-06 0 0  2.34e-06 0 0  2.37e-06 0 0  2.4e-06 0 0  2.43e-06 0 0  2.46e-06 0 0  2.49e-06 0 0  2.52e-06 0 0  2.55e-06 0 0  2.58e-06 0 0  2.61e-06 0 0  2.64e-06 0 0  2.67e-06 0 0  2.7e-06 0 0  2.73e-06 0 0  2.76e-06 0 0  2.79e-06 0 0  2.82e-06 0 0  2.85e-06 0 0  2.88e-06 0 0  2.91e-06 0 0  2.94e-06 0 0  2.97e-06 0 0  3e-06 0 0  </DataArray>
</Points>
<Cells>
<DataArray  type="UInt32"  Name="connectivity"  format="ascii">0 1  1 2  2 3  3 4  4 5  5 6  6 7  7 8  8 9  9 10  10 11  11 12  12 13  13 14  14 15  15 16  16 17  17 18  18 19  19 20  20 21  21 22  22 23  23 24  24 25  25 26  26 27  27 28  28 29  29 30  30 31  31 32  32 33  33 34  34 35  35 36  36 37  37 38  38 39  39 40  40 41  41 42  42 43  43 44  44 45  45 46  46 47  47 48  48 49  49 50  50 51  51 52  52 53  53 54  54 55  55 56  56 57  57 58  58 59  59 60  60 61  61 62  62 63  63 64  64 65  65 66  66 67  67 68  68 69  69 70  70 71  71 72  72 73  73 74  74 75  75 76  76 77  77 78  78 79  79 80  80 81  81 82  82 83  83 84  84 85  85 86  86 87  87 88  88 89  89 90  90 91  91 92  92 93  93 94  94 95  95 96  96 97  97 98  98 99  99 100  </DataArray>
<DataArray  type="UInt32"  Name="offsets"  format="ascii">2 4 6 8 10 12 14 16 18 20 22 24 26 28 30 32 34 36 38 40 42 44 46 48 50 52 54 56 58 60 62 64 66 68 70 72 74 76 78 80 82 84 86 88 90 92 94 96 98 100 102 104 106 108 110 112 114 116 118 120 122 124 126 128 130 132 134 136 138 140 142 144 146 148 150 152 154 156 158 160 162 164 166 168 170 172 174 176 178 180 182 184 186 188 190 192 194 196 198 200 </DataArray>
<DataArray  type="UInt8"  Name="types"  format="ascii">3 3 3 3 3 3 3 3 3 3 3 3 3 3 3 3 3 3 3 3 3 3 3 3 3 3 3 3 3 3 3 3 3 3 3 3 3 3 3 3 3 3 3 3 3 3 3 3 3 3 3 3 3 3 3 3 3 3 3 3 3 3 3 3 3 3 3 3 3 3 3 3 3 3 3 3 3 3 3 3 3 3 3 3 3 3 3 3 3 3 3 3 3 3 3 3 3 3 3 3 </DataArray>
</Cells>
<PointData  Scalars="f_16"> 
<DataArray  type="Float64"  Name="f_16"  format="ascii">0.0000000000000000e+00  2.2073896823591490e+21  4.4126009375656903e+21  6.6134574883119416e+21  8.8077873548584404e+21  1.0993424998516035e+22  1.3168213458771446e+22  1.5330006481947182e+22  1.7476670639295076e+22  1.9606087432433186e+22  2.1716155384048153e+22  2.3804792111799860e+22  2.5869936383381559e+22  2.7909550150707514e+22  2.9921620561220581e+22  3.1904161944334714e+22  3.3855217771052307e+22  3.5772862584822082e+22  3.7655203901732324e+22  3.9500384078164027e+22  4.1306582144060779e+22  4.3072015600006401e+22  4.4794942176336516e+22  4.6473661552548238e+22  4.8106517035311119e+22  4.9691897193423255e+22  5.1228237448099102e+22  5.2714021617019713e+22  5.4147783410621241e+22  5.5528107879145578e+22  5.6853632809024614e+22  5.8123050067220238e+22  5.9335106892193474e+22  6.0488607130228428e+22  6.1582412415891382e+22  6.2615443295459634e+22  6.3586680292211681e+22  6.4495164912527382e+22  6.5340000591805046e+22  6.6120353579262166e+22  6.6835453760746448e+22  6.7484595418745255e+22  6.8067137928843269e+22  6.8582506391941214e+22  6.9030192201611566e+22  6.9409753546031519e+22  6.9720815843997752e+22  6.9963072114592628e+22  7.0136283280137181e+22  7.0240278402131839e+22  7.0274954849951932e+22  7.0240278402131789e+22  7.0136283280137114e+22  6.9963072114592536e+22  6.9720815843997634e+22  6.9409753546031393e+22  6.9030192201611407e+22  6.8582506391941037e+22  6.8067137928843093e+22  6.7484595418745046e+22  6.6835453760746180e+22  6.6120353579261856e+22  6.5340000591804711e+22  6.4495164912527013e+22  6.3586680292211270e+22  6.2615443295459189e+22  6.1582412415890912e+22  6.0488607130227925e+22  5.9335106892192945e+22  5.8123050067219668e+22  5.6853632809023977e+22  5.5528107879144907e+22  5.4147783410620519e+22  5.2714021617018983e+22  5.1228237448098406e+22  4.9691897193422551e+22  4.8106517035310423e+22  4.6473661552547575e+22  4.4794942176335845e+22  4.3072015600005746e+22  4.1306582144060167e+22  3.9500384078163431e+22  3.7655203901731770e+22  3.5772862584821587e+22  3.3855217771051833e+22  3.1904161944334282e+22  2.9921620561220203e+22  2.7909550150707178e+22  2.5869936383381257e+22  2.3804792111799617e+22  2.1716155384047935e+22  1.9606087432432989e+22  1.7476670639294929e+22  1.5330006481947050e+22  1.3168213458771331e+22  1.0993424998515962e+22  8.8077873548583753e+21  6.6134574883118871e+21  4.4126009375656740e+21  2.2073896823591411e+21  0.0000000000000000e+00  </DataArray> 
</PointData> 
</Piece>
</UnstructuredGrid>
</VTKFile>