<?xml version="1.0"?>
<VTKFile type="UnstructuredGrid"  version="0.1"  >
<UnstructuredGrid>
<Piece  NumberOfPoints="101" NumberOfCells="100">
<Points>
<DataArray  type="Float64"  NumberOfComponents="3"  format="ascii">0 0 0  3e-08 0 0  6.000000000000001e-08 0 0  9e-08 0 0  1.2e-07 0 0  1.5e-07 0 0  1.8e-07 0 0  2.1e-07 0 0  2.4e-07 0 0  2.7e-07 0 0  3e-07 0 0  3.3e-07 0 0  3.6e-07 0 0  3.9e-07 0 0  4.200000000000001e-07 0 0  4.5e-07 0 0  4.800000000000001e-07 0 0  5.1e-07 0 0  5.4e-07 0 0  5.7e-07 0 0  6e-07 0 0  6.3e-07 0 0  6.6e-07 0 0  6.9e-07 0 0  7.2e-07 0 0  7.5e-07 0 0  7.799999999999999e-07 0 0  8.100000000000001e-07 0 0  8.400000000000001e-07 0 0  8.7e-07 0 0  9.000000000000001e-07 0 0  9.3e-07 0 0  9.600000000000001e-07 0 0  9.900000000000001e-07 0 0  1.02e-06 0 0  1.05e-06 0 0  1.08e-06 0 0  1.11e-06 0 0  1.14e-06 0 0  1.17e-06 0 0  1.2e-06 0 0  1.23e-06 0 0  1.26e-06 0 0  1.29e-06 0 0  1.32e-06 0 0  1.35e-06 0 0  1.38e-06 0 0  1.41e-06 0 0  1.44e-06 0 0  1.47e-06 0 0  1.5e-06 0 0  1.53e-06 0 0  1.56e-06 0 0  1.59e-06 0 0  1.62e-06 0 0  1.65e-06 0 0  1.68e-06 0 0  1.71e-06 0 0  1.74e-06 0 0  1.77e-06 0 0  1.8e-06 0 0  1.83e-06 0 0  1.86e-06 0 0  1.89e-06 0 0  1.92e-06 0 0  1.95e-06 0 0  1.98e-06 0 0  2.01e-06 0 0  2.04e-06 0 0  2.07e-06 0 0  2.1e-06 0 0  2.13e-06 0 0  2.16e-06 0 0  2.19e-06 0 0  2.22e-06 0 0  2.25e-06 0 0  2.28e-06 0 0  2.31e-06 0 0  2.34e-06 0 0  2.37e-06 0 0  2.4e-06 0 0  2.43e-06 0 0  2.46e-06 0 0  2.49e-06 0 0  2.52e-06 0 0  2.55e-06 0 0  2.58e-06 0 0  2.61e-06 0 0  2.64e-06 0 0  2.67e-06 0 0  2.7e-06 0 0  2.73e-06 0 0  2.76e-06 0 0  2.79e-06 0 0  2.82e-06 0 0  2.85e-06 0 0  2.88e-06 0 0  2.91e-06 0 0  2.94e-06 0 0  2.97e-06 0 0  3e-06 0 0  </DataArray>
</Points>
<Cells>
<DataArray  type="UInt32"  Name="connectivity"  format="ascii">0 1  1 2  2 3  3 4  4 5  5 6  6 7  7 8  8 9  9 10  10 11  11 12  12 13  13 14  14 15  15 16  16 17  17 18  18 19  19 20  20 21  21 22  22 23  23 24  24 25  25 26  26 27  27 28  28 29  29 30  30 31  31 32  32 33  33 34  34 35  35 36  36 37  37 38  38 39  39 40  40 41  41 42  42 43  43 44  44 45  45 46  46 47  47 48  48 49  49 50  50 51  51 52  52 53  53 54  54 55  55 56  56 57  57 58  58 59  59 60  60 61  61 62  62 63  63 64  64 65  65 66  66 67  67 68  68 69  69 70  70 71  71 72  72 73  73 74  74 75  75 76  76 77  77 78  78 79  79 80  80 81  81 82  82 83  83 84  84 85  85 86  86 87  87 88  88 89  89 90  90 91  91 92  92 93  93 94  94 95  95 96  96 97  97 98  98 99  99 100  </DataArray>
<DataArray  type="UInt32"  Name="offsets"  format="ascii">2 4 6 8 10 12 14 16 18 20 22 24 26 28 30 32 34 36 38 40 42 44 46 48 50 52 54 56 58 60 62 64 66 68 70 72 74 76 78 80 82 84 86 88 90 92 94 96 98 100 102 104 106 108 110 112 114 116 118 120 122 124 126 128 130 132 134 136 138 140 142 144 146 148 150 152 154 156 158 160 162 164 166 168 170 172 174 176 178 180 182 184 186 188 190 192 194 196 198 200 </DataArray>
<DataArray  type="UInt8"  Name="types"  format="ascii">3 3 3 3 3 3 3 3 3 3 3 3 3 3 3 3 3 3 3 3 3 3 3 3 3 3 3 3 3 3 3 3 3 3 3 3 3 3 3 3 3 3 3 3 3 3 3 3 3 3 3 3 3 3 3 3 3 3 3 3 3 3 3 3 3 3 3 3 3 3 3 3 3 3 3 3 3 3 3 3 3 3 3 3 3 3 3 3 3 3 3 3 3 3 3 3 3 3 3 3 </DataArray>
</Cells>
<PointData  Scalars="f_16"> 
<DataArray  type="Float64"  Name="f_16"  format="ascii">0.0000000000000000e+00  4.5282266355415709e+21  9.0519844544327618e+21  1.3566809050238190e+22  1.8068244832599839e+22  2.2551849424398414e+22  2.7013198045874039e+22  3.1447887881379282e+22  3.5851542424454894e+22  4.0219815796939948e+22  4.4548397037853570e+22  4.8833014357815693e+22  5.3069439354807677e+22  5.7253491187112504e+22  6.1381040699316021e+22  6.5448014497297193e+22  6.9450398968186023e+22  7.3384244241321305e+22  7.7245668086299788e+22  8.1030859744269407e+22  8.4736083688685434e+22  8.8357683311818886e+22  9.1892084533378089e+22  9.5335799327682957e+22  9.8685429165911039e+22  1.0193766837001799e+23  1.0508930737502325e+23  1.0813723589644136e+23  1.1107844599973303e+23  1.1391003506874746e+23  1.1662920867022635e+23  1.1923328331154289e+23  1.2171968908895462e+23  1.2408597222375662e+23  1.2632979748383299e+23  1.2844895048821649e+23  1.3044133989238263e+23  1.3230499945212212e+23  1.3403808996395440e+23  1.3563890108016848e+23  1.3710585299669959e+23  1.3843749801217626e+23  1.3963252195659962e+23  1.4068974548824518e+23  1.4160812525750731e+23  1.4238675493653820e+23  1.4302486611366542e+23  1.4352182905170529e+23  1.4387715330942403e+23  1.4409048822553362e+23  1.4416162326474439e+23  1.4409048822553352e+23  1.4387715330942388e+23  1.4352182905170507e+23  1.4302486611366515e+23  1.4238675493653788e+23  1.4160812525750694e+23  1.4068974548824480e+23  1.3963252195659923e+23  1.3843749801217581e+23  1.3710585299669907e+23  1.3563890108016788e+23  1.3403808996395373e+23  1.3230499945212139e+23  1.3044133989238184e+23  1.2844895048821563e+23  1.2632979748383209e+23  1.2408597222375566e+23  1.2171968908895361e+23  1.1923328331154180e+23  1.1662920867022511e+23  1.1391003506874615e+23  1.1107844599973164e+23  1.0813723589643993e+23  1.0508930737502189e+23  1.0193766837001662e+23  9.8685429165909697e+22  9.5335799327681682e+22  9.1892084533376781e+22  8.8357683311817611e+22  8.4736083688684243e+22  8.1030859744268215e+22  7.7245668086298698e+22  7.3384244241320315e+22  6.9450398968185075e+22  6.5448014497296345e+22  6.1381040699315283e+22  5.7253491187111833e+22  5.3069439354807073e+22  4.8833014357815206e+22  4.4548397037853126e+22  4.0219815796939537e+22  3.5851542424454596e+22  3.1447887881379017e+22  2.7013198045873812e+22  2.2551849424398276e+22  1.8068244832599713e+22  1.3566809050238085e+22  9.0519844544327346e+21  4.5282266355415573e+21  0.0000000000000000e+00  </DataArray> 
</PointData> 
</Piece>
</UnstructuredGrid>
</VTKFile>