<?xml version="1.0"?>
<VTKFile type="UnstructuredGrid"  version="0.1"  >
<UnstructuredGrid>
<Piece  NumberOfPoints="101" NumberOfCells="100">
<Points>
<DataArray  type="Float64"  NumberOfComponents="3"  format="ascii">0 0 0  3e-08 0 0  6.000000000000001e-08 0 0  9e-08 0 0  1.2e-07 0 0  1.5e-07 0 0  1.8e-07 0 0  2.1e-07 0 0  2.4e-07 0 0  2.7e-07 0 0  3e-07 0 0  3.3e-07 0 0  3.6e-07 0 0  3.9e-07 0 0  4.200000000000001e-07 0 0  4.5e-07 0 0  4.800000000000001e-07 0 0  5.1e-07 0 0  5.4e-07 0 0  5.7e-07 0 0  6e-07 0 0  6.3e-07 0 0  6.6e-07 0 0  6.9e-07 0 0  7.2e-07 0 0  7.5e-07 0 0  7.799999999999999e-07 0 0  8.100000000000001e-07 0 0  8.400000000000001e-07 0 0  8.7e-07 0 0  9.000000000000001e-07 0 0  9.3e-07 0 0  9.600000000000001e-07 0 0  9.900000000000001e-07 0 0  1.02e-06 0 0  1.05e-06 0 0  1.08e-06 0 0  1.11e-06 0 0  1.14e-06 0 0  1.17e-06 0 0  1.2e-06 0 0  1.23e-06 0 0  1.26e-06 0 0  1.29e-06 0 0  1.32e-06 0 0  1.35e-06 0 0  1.38e-06 0 0  1.41e-06 0 0  1.44e-06 0 0  1.47e-06 0 0  1.5e-06 0 0  1.53e-06 0 0  1.56e-06 0 0  1.59e-06 0 0  1.62e-06 0 0  1.65e-06 0 0  1.68e-06 0 0  1.71e-06 0 0  1.74e-06 0 0  1.77e-06 0 0  1.8e-06 0 0  1.83e-06 0 0  1.86e-06 0 0  1.89e-06 0 0  1.92e-06 0 0  1.95e-06 0 0  1.98e-06 0 0  2.01e-06 0 0  2.04e-06 0 0  2.07e-06 0 0  2.1e-06 0 0  2.13e-06 0 0  2.16e-06 0 0  2.19e-06 0 0  2.22e-06 0 0  2.25e-06 0 0  2.28e-06 0 0  2.31e-06 0 0  2.34e-06 0 0  2.37e-06 0 0  2.4e-06 0 0  2.43e-06 0 0  2.46e-06 0 0  2.49e-06 0 0  2.52e-06 0 0  2.55e-06 0 0  2.58e-06 0 0  2.61e-06 0 0  2.64e-06 0 0  2.67e-06 0 0  2.7e-06 0 0  2.73e-06 0 0  2.76e-06 0 0  2.79e-06 0 0  2.82e-06 0 0  2.85e-06 0 0  2.88e-06 0 0  2.91e-06 0 0  2.94e-06 0 0  2.97e-06 0 0  3e-06 0 0  </DataArray>
</Points>
<Cells>
<DataArray  type="UInt32"  Name="connectivity"  format="ascii">0 1  1 2  2 3  3 4  4 5  5 6  6 7  7 8  8 9  9 10  10 11  11 12  12 13  13 14  14 15  15 16  16 17  17 18  18 19  19 20  20 21  21 22  22 23  23 24  24 25  25 26  26 27  27 28  28 29  29 30  30 31  31 32  32 33  33 34  34 35  35 36  36 37  37 38  38 39  39 40  40 41  41 42  42 43  43 44  44 45  45 46  46 47  47 48  48 49  49 50  50 51  51 52  52 53  53 54  54 55  55 56  56 57  57 58  58 59  59 60  60 61  61 62  62 63  63 64  64 65  65 66  66 67  67 68  68 69  69 70  70 71  71 72  72 73  73 74  74 75  75 76  76 77  77 78  78 79  79 80  80 81  81 82  82 83  83 84  84 85  85 86  86 87  87 88  88 89  89 90  90 91  91 92  92 93  93 94  94 95  95 96  96 97  97 98  98 99  99 100  </DataArray>
<DataArray  type="UInt32"  Name="offsets"  format="ascii">2 4 6 8 10 12 14 16 18 20 22 24 26 28 30 32 34 36 38 40 42 44 46 48 50 52 54 56 58 60 62 64 66 68 70 72 74 76 78 80 82 84 86 88 90 92 94 96 98 100 102 104 106 108 110 112 114 116 118 120 122 124 126 128 130 132 134 136 138 140 142 144 146 148 150 152 154 156 158 160 162 164 166 168 170 172 174 176 178 180 182 184 186 188 190 192 194 196 198 200 </DataArray>
<DataArray  type="UInt8"  Name="types"  format="ascii">3 3 3 3 3 3 3 3 3 3 3 3 3 3 3 3 3 3 3 3 3 3 3 3 3 3 3 3 3 3 3 3 3 3 3 3 3 3 3 3 3 3 3 3 3 3 3 3 3 3 3 3 3 3 3 3 3 3 3 3 3 3 3 3 3 3 3 3 3 3 3 3 3 3 3 3 3 3 3 3 3 3 3 3 3 3 3 3 3 3 3 3 3 3 3 3 3 3 3 3 </DataArray>
</Cells>
<PointData  Scalars="f_16"> 
<DataArray  type="Float64"  Name="f_16"  format="ascii">0.0000000000000000e+00  1.3305045639681666e+22  2.6596957275986560e+22  3.9862613898546905e+22  5.3088920469912206e+22  6.6262820879271343e+22  7.9371310856934229e+22  9.2401450836563964e+22  1.0534037875221288e+23  1.1817532275729075e+23  1.3089361385268584e+23  1.4348269841136424e+23  1.5593015058689352e+23  1.6822368459347131e+23  1.8035116684518636e+23  1.9230062794240261e+23  2.0406027449333029e+23  2.1561850075903552e+23  2.2696390011034089e+23  2.3808527628527869e+23  2.4897165443598336e+23  2.5961229195414405e+23  2.6999668906438016e+23  2.8011459917516014e+23  2.8995603897714745e+23  2.9951129827912911e+23  3.0877094957196625e+23  3.1772585731129656e+23  3.2636718691001230e+23  3.3468641343184878e+23  3.4267532997772418e+23  3.5032605575679225e+23  3.5763104383449386e+23  3.6458308855021913e+23  3.7117533259753154e+23  3.7740127376023745e+23  3.8325477129793342e+23  3.8873005197500668e+23  3.9382171572741556e+23  3.9852474096192948e+23  4.0283448948286609e+23  4.0674671104171939e+23  4.1025754750543437e+23  4.1336353663944912e+23  4.1606161550198531e+23  4.1834912344643950e+23  4.2022380472909174e+23  4.2168381071971812e+23  4.2272770171306315e+23  4.2335444833949962e+23  4.2356343257357278e+23  4.2335444833949928e+23  4.2272770171306261e+23  4.2168381071971738e+23  4.2022380472909080e+23  4.1834912344643836e+23  4.1606161550198404e+23  4.1336353663944784e+23  4.1025754750543303e+23  4.0674671104171778e+23  4.0283448948286428e+23  3.9852474096192746e+23  3.9382171572741335e+23  3.8873005197500433e+23  3.8325477129793073e+23  3.7740127376023463e+23  3.7117533259752859e+23  3.6458308855021597e+23  3.5763104383449050e+23  3.5032605575678869e+23  3.4267532997772029e+23  3.3468641343184475e+23  3.2636718691000800e+23  3.1772585731129214e+23  3.0877094957196202e+23  2.9951129827912482e+23  2.8995603897714335e+23  2.8011459917515622e+23  2.6999668906437623e+23  2.5961229195414023e+23  2.4897165443597974e+23  2.3808527628527507e+23  2.2696390011033754e+23  2.1561850075903253e+23  2.0406027449332744e+23  1.9230062794240006e+23  1.8035116684518414e+23  1.6822368459346930e+23  1.5593015058689174e+23  1.4348269841136279e+23  1.3089361385268457e+23  1.1817532275728963e+23  1.0534037875221207e+23  9.2401450836563260e+22  7.9371310856933592e+22  6.6262820879270974e+22  5.3088920469911879e+22  3.9862613898546628e+22  2.6596957275986497e+22  1.3305045639681637e+22  0.0000000000000000e+00  </DataArray> 
</PointData> 
</Piece>
</UnstructuredGrid>
</VTKFile>