<?xml version="1.0"?>
<VTKFile type="UnstructuredGrid"  version="0.1"  >
<UnstructuredGrid>
<Piece  NumberOfPoints="101" NumberOfCells="100">
<Points>
<DataArray  type="Float64"  NumberOfComponents="3"  format="ascii">0 0 0  3e-08 0 0  6.000000000000001e-08 0 0  9e-08 0 0  1.2e-07 0 0  1.5e-07 0 0  1.8e-07 0 0  2.1e-07 0 0  2.4e-07 0 0  2.7e-07 0 0  3e-07 0 0  3.3e-07 0 0  3.6e-07 0 0  3.9e-07 0 0  4.200000000000001e-07 0 0  4.5e-07 0 0  4.800000000000001e-07 0 0  5.1e-07 0 0  5.4e-07 0 0  5.7e-07 0 0  6e-07 0 0  6.3e-07 0 0  6.6e-07 0 0  6.9e-07 0 0  7.2e-07 0 0  7.5e-07 0 0  7.799999999999999e-07 0 0  8.100000000000001e-07 0 0  8.400000000000001e-07 0 0  8.7e-07 0 0  9.000000000000001e-07 0 0  9.3e-07 0 0  9.600000000000001e-07 0 0  9.900000000000001e-07 0 0  1.02e-06 0 0  1.05e-06 0 0  1.08e-06 0 0  1.11e-06 0 0  1.14e-06 0 0  1.17e-06 0 0  1.2e-06 0 0  1.23e-06 0 0  1.26e-06 0 0  1.29e-06 0 0  1.32e-06 0 0  1.35e-06 0 0  1.38e-06 0 0  1.41e-06 0 0  1.44e-06 0 0  1.47e-06 0 0  1.5e-06 0 0  1.53e-06 0 0  1.56e-06 0 0  1.59e-06 0 0  1.62e-06 0 0  1.65e-06 0 0  1.68e-06 0 0  1.71e-06 0 0  1.74e-06 0 0  1.77e-06 0 0  1.8e-06 0 0  1.83e-06 0 0  1.86e-06 0 0  1.89e-06 0 0  1.92e-06 0 0  1.95e-06 0 0  1.98e-06 0 0  2.01e-06 0 0  2.04e-06 0 0  2.07e-06 0 0  2.1e-06 0 0  2.13e-06 0 0  2.16e-06 0 0  2.19e-06 0 0  2.22e-06 0 0  2.25e-06 0 0  2.28e-06 0 0  2.31e-06 0 0  2.34e-06 0 0  2.37e-06 0 0  2.4e-06 0 0  2.43e-06 0 0  2.46e-06 0 0  2.49e-06 0 0  2.52e-06 0 0  2.55e-06 0 0  2.58e-06 0 0  2.61e-06 0 0  2.64e-06 0 0  2.67e-06 0 0  2.7e-06 0 0  2.73e-06 0 0  2.76e-06 0 0  2.79e-06 0 0  2.82e-06 0 0  2.85e-06 0 0  2.88e-06 0 0  2.91e-06 0 0  2.94e-06 0 0  2.97e-06 0 0  3e-06 0 0  </DataArray>
</Points>
<Cells>
<DataArray  type="UInt32"  Name="connectivity"  format="ascii">0 1  1 2  2 3  3 4  4 5  5 6  6 7  7 8  8 9  9 10  10 11  11 12  12 13  13 14  14 15  15 16  16 17  17 18  18 19  19 20  20 21  21 22  22 23  23 24  24 25  25 26  26 27  27 28  28 29  29 30  30 31  31 32  32 33  33 34  34 35  35 36  36 37  37 38  38 39  39 40  40 41  41 42  42 43  43 44  44 45  45 46  46 47  47 48  48 49  49 50  50 51  51 52  52 53  53 54  54 55  55 56  56 57  57 58  58 59  59 60  60 61  61 62  62 63  63 64  64 65  65 66  66 67  67 68  68 69  69 70  70 71  71 72  72 73  73 74  74 75  75 76  76 77  77 78  78 79  79 80  80 81  81 82  82 83  83 84  84 85  85 86  86 87  87 88  88 89  89 90  90 91  91 92  92 93  93 94  94 95  95 96  96 97  97 98  98 99  99 100  </DataArray>
<DataArray  type="UInt32"  Name="offsets"  format="ascii">2 4 6 8 10 12 14 16 18 20 22 24 26 28 30 32 34 36 38 40 42 44 46 48 50 52 54 56 58 60 62 64 66 68 70 72 74 76 78 80 82 84 86 88 90 92 94 96 98 100 102 104 106 108 110 112 114 116 118 120 122 124 126 128 130 132 134 136 138 140 142 144 146 148 150 152 154 156 158 160 162 164 166 168 170 172 174 176 178 180 182 184 186 188 190 192 194 196 198 200 </DataArray>
<DataArray  type="UInt8"  Name="types"  format="ascii">3 3 3 3 3 3 3 3 3 3 3 3 3 3 3 3 3 3 3 3 3 3 3 3 3 3 3 3 3 3 3 3 3 3 3 3 3 3 3 3 3 3 3 3 3 3 3 3 3 3 3 3 3 3 3 3 3 3 3 3 3 3 3 3 3 3 3 3 3 3 3 3 3 3 3 3 3 3 3 3 3 3 3 3 3 3 3 3 3 3 3 3 3 3 3 3 3 3 3 3 </DataArray>
</Cells>
<PointData  Scalars="f_16"> 
<DataArray  type="Float64"  Name="f_16"  format="ascii">0.0000000000000000e+00  1.9060182292547622e+22  3.8101519600941680e+22  5.7105185848675596e+22  7.6052392753119399e+22  9.4924408668960516e+22  1.1370257736757546e+23  1.3236833673118852e+23  1.5090323734085387e+23  1.6928896093752116e+23  1.8750733873571042e+23  2.0554036956962780e+23  2.2337023785189647e+23  2.4097933132546151e+23  2.5835025858963895e+23  2.7546586638172914e+23  2.9230925659609202e+23  3.0886380302308402e+23  3.2511316779078848e+23  3.4104131749301822e+23  3.5663253898764064e+23  3.7187145484986049e+23  3.8674303846569220e+23  4.0123262875146221e+23  4.1532594448580000e+23  4.2900909824119146e+23  4.4226860990279358e+23  4.5509141976283042e+23  4.6746490117950471e+23  4.7937687278997494e+23  4.9081561026754917e+23  5.0176985761384110e+23  5.1222883797721763e+23  5.2218226398943317e+23  5.3162034761290336e+23  5.4053380949160504e+23  5.4891388779911239e+23  5.5675234657778260e+23  5.6404148356358497e+23  5.7077413749153923e+23  5.7694369487717138e+23  5.8254409626982483e+23  5.8756984197407788e+23  5.9201599723590648e+23  5.9587819689061236e+23  5.9915264946989145e+23  6.0183614076576977e+23  6.0392603684945597e+23  6.0542028654349177e+23  6.0631742334588147e+23  6.0661656680518882e+23  6.0631742334588094e+23  6.0542028654349097e+23  6.0392603684945490e+23  6.0183614076576850e+23  5.9915264946988997e+23  5.9587819689061061e+23  5.9201599723590480e+23  5.8756984197407606e+23  5.8254409626982289e+23  5.7694369487716903e+23  5.7077413749153655e+23  5.6404148356358182e+23  5.5675234657777924e+23  5.4891388779910877e+23  5.4053380949160122e+23  5.3162034761289940e+23  5.2218226398942901e+23  5.1222883797721327e+23  5.0176985761383634e+23  4.9081561026754394e+23  4.7937687278996950e+23  4.6746490117949887e+23  4.5509141976282451e+23  4.4226860990278788e+23  4.2900909824118569e+23  4.1532594448579437e+23  4.0123262875145677e+23  3.8674303846568670e+23  3.7187145484985526e+23  3.5663253898763567e+23  3.4104131749301332e+23  3.2511316779078391e+23  3.0886380302307986e+23  2.9230925659608803e+23  2.7546586638172559e+23  2.5835025858963589e+23  2.4097933132545876e+23  2.2337023785189398e+23  2.0554036956962579e+23  1.8750733873570860e+23  1.6928896093751948e+23  1.5090323734085264e+23  1.3236833673118748e+23  1.1370257736757454e+23  9.4924408668959929e+22  7.6052392753118879e+22  5.7105185848675176e+22  3.8101519600941579e+22  1.9060182292547567e+22  0.0000000000000000e+00  </DataArray> 
</PointData> 
</Piece>
</UnstructuredGrid>
</VTKFile>