<?xml version="1.0"?>
<VTKFile type="UnstructuredGrid"  version="0.1"  >
<UnstructuredGrid>
<Piece  NumberOfPoints="101" NumberOfCells="100">
<Points>
<DataArray  type="Float64"  NumberOfComponents="3"  format="ascii">0 0 0  3e-08 0 0  6.000000000000001e-08 0 0  9e-08 0 0  1.2e-07 0 0  1.5e-07 0 0  1.8e-07 0 0  2.1e-07 0 0  2.4e-07 0 0  2.7e-07 0 0  3e-07 0 0  3.3e-07 0 0  3.6e-07 0 0  3.9e-07 0 0  4.200000000000001e-07 0 0  4.5e-07 0 0  4.800000000000001e-07 0 0  5.1e-07 0 0  5.4e-07 0 0  5.7e-07 0 0  6e-07 0 0  6.3e-07 0 0  6.6e-07 0 0  6.9e-07 0 0  7.2e-07 0 0  7.5e-07 0 0  7.799999999999999e-07 0 0  8.100000000000001e-07 0 0  8.400000000000001e-07 0 0  8.7e-07 0 0  9.000000000000001e-07 0 0  9.3e-07 0 0  9.600000000000001e-07 0 0  9.900000000000001e-07 0 0  1.02e-06 0 0  1.05e-06 0 0  1.08e-06 0 0  1.11e-06 0 0  1.14e-06 0 0  1.17e-06 0 0  1.2e-06 0 0  1.23e-06 0 0  1.26e-06 0 0  1.29e-06 0 0  1.32e-06 0 0  1.35e-06 0 0  1.38e-06 0 0  1.41e-06 0 0  1.44e-06 0 0  1.47e-06 0 0  1.5e-06 0 0  1.53e-06 0 0  1.56e-06 0 0  1.59e-06 0 0  1.62e-06 0 0  1.65e-06 0 0  1.68e-06 0 0  1.71e-06 0 0  1.74e-06 0 0  1.77e-06 0 0  1.8e-06 0 0  1.83e-06 0 0  1.86e-06 0 0  1.89e-06 0 0  1.92e-06 0 0  1.95e-06 0 0  1.98e-06 0 0  2.01e-06 0 0  2.04e-06 0 0  2.07e-06 0 0  2.1e-06 0 0  2.13e-06 0 0  2.16e-06 0 0  2.19e-06 0 0  2.22e-06 0 0  2.25e-06 0 0  2.28e-06 0 0  2.31e-06 0 0  2.34e-06 0 0  2.37e-06 0 0  2.4e-06 0 0  2.43e-06 0 0  2.46e-06 0 0  2.49e-06 0 0  2.52e-06 0 0  2.55e-06 0 0  2.58e-06 0 0  2.61e-06 0 0  2.64e-06 0 0  2.67e-06 0 0  2.7e-06 0 0  2.73e-06 0 0  2.76e-06 0 0  2.79e-06 0 0  2.82e-06 0 0  2.85e-06 0 0  2.88e-06 0 0  2.91e-06 0 0  2.94e-06 0 0  2.97e-06 0 0  3e-06 0 0  </DataArray>
</Points>
<Cells>
<DataArray  type="UInt32"  Name="connectivity"  format="ascii">0 1  1 2  2 3  3 4  4 5  5 6  6 7  7 8  8 9  9 10  10 11  11 12  12 13  13 14  14 15  15 16  16 17  17 18  18 19  19 20  20 21  21 22  22 23  23 24  24 25  25 26  26 27  27 28  28 29  29 30  30 31  31 32  32 33  33 34  34 35  35 36  36 37  37 38  38 39  39 40  40 41  41 42  42 43  43 44  44 45  45 46  46 47  47 48  48 49  49 50  50 51  51 52  52 53  53 54  54 55  55 56  56 57  57 58  58 59  59 60  60 61  61 62  62 63  63 64  64 65  65 66  66 67  67 68  68 69  69 70  70 71  71 72  72 73  73 74  74 75  75 76  76 77  77 78  78 79  79 80  80 81  81 82  82 83  83 84  84 85  85 86  86 87  87 88  88 89  89 90  90 91  91 92  92 93  93 94  94 95  95 96  96 97  97 98  98 99  99 100  </DataArray>
<DataArray  type="UInt32"  Name="offsets"  format="ascii">2 4 6 8 10 12 14 16 18 20 22 24 26 28 30 32 34 36 38 40 42 44 46 48 50 52 54 56 58 60 62 64 66 68 70 72 74 76 78 80 82 84 86 88 90 92 94 96 98 100 102 104 106 108 110 112 114 116 118 120 122 124 126 128 130 132 134 136 138 140 142 144 146 148 150 152 154 156 158 160 162 164 166 168 170 172 174 176 178 180 182 184 186 188 190 192 194 196 198 200 </DataArray>
<DataArray  type="UInt8"  Name="types"  format="ascii">3 3 3 3 3 3 3 3 3 3 3 3 3 3 3 3 3 3 3 3 3 3 3 3 3 3 3 3 3 3 3 3 3 3 3 3 3 3 3 3 3 3 3 3 3 3 3 3 3 3 3 3 3 3 3 3 3 3 3 3 3 3 3 3 3 3 3 3 3 3 3 3 3 3 3 3 3 3 3 3 3 3 3 3 3 3 3 3 3 3 3 3 3 3 3 3 3 3 3 3 </DataArray>
</Cells>
<PointData  Scalars="f_16"> 
<DataArray  type="Float64"  Name="f_16"  format="ascii">0.0000000000000000e+00  3.9526319834308274e+22  7.9010130051125226e+22  1.1840899573890012e+23  1.5768063098708740e+23  1.9678297236433470e+23  2.3567425118343958e+23  2.7431306417092094e+23  3.1265844217751226e+23  3.5066991658822306e+23  3.8830758311639684e+23  4.2553216269493569e+23  4.6230505920905504e+23  4.9858841384805235e+23  5.3434515588809522e+23  5.6953904975344861e+23  6.0413473823937618e+23  6.3809778181569386e+23  6.7139469396521614e+23  7.0399297254569844e+23  7.3586112719702077e+23  7.6696870284696357e+23  7.9728629939871366e+23  8.2678558771103175e+23  8.5543932200759500e+23  8.8322134887527378e+23  9.1010661303193128e+23  9.3607116006265495e+23  9.6109213633911048e+23  9.8514778634998270e+23  1.0082174476811974e+24  1.0302815438928898e+24  1.0513215755459533e+24  1.0713201096345230e+24  1.0902607676820481e+24  1.1081282127577449e+24  1.1249081356673618e+24  1.1405872405673858e+24  1.1551532302452491e+24  1.1685947912998461e+24  1.1809015794468787e+24  1.1920642051623369e+24  1.2020742198649137e+24  1.2109241028244629e+24  1.2186072489688623e+24  1.2251179577459560e+24  1.2304514231807137e+24  1.2346037252504970e+24  1.2375718226834485e+24  1.2393535472666211e+24  1.2399475997316483e+24  1.2393535472666203e+24  1.2375718226834472e+24  1.2346037252504949e+24  1.2304514231807113e+24  1.2251179577459533e+24  1.2186072489688593e+24  1.2109241028244600e+24  1.2020742198649108e+24  1.1920642051623336e+24  1.1809015794468744e+24  1.1685947912998413e+24  1.1551532302452438e+24  1.1405872405673801e+24  1.1249081356673556e+24  1.1081282127577383e+24  1.0902607676820410e+24  1.0713201096345154e+24  1.0513215755459452e+24  1.0302815438928811e+24  1.0082174476811877e+24  9.8514778634997250e+23  9.6109213633909948e+23  9.3607116006264408e+23  9.1010661303192081e+23  8.8322134887526305e+23  8.5543932200758467e+23  8.2678558771102182e+23  7.9728629939870360e+23  7.6696870284695391e+23  7.3586112719701177e+23  7.0399297254568958e+23  6.7139469396520809e+23  6.3809778181568661e+23  6.0413473823936920e+23  5.6953904975344244e+23  5.3434515588809006e+23  4.9858841384804772e+23  4.6230505920905088e+23  4.2553216269493254e+23  3.8830758311639416e+23  3.5066991658822058e+23  3.1265844217751058e+23  2.7431306417091946e+23  2.3567425118343831e+23  1.9678297236433410e+23  1.5768063098708679e+23  1.1840899573889959e+23  7.9010130051125242e+22  3.9526319834308282e+22  0.0000000000000000e+00  </DataArray> 
</PointData> 
</Piece>
</UnstructuredGrid>
</VTKFile>