<?xml version="1.0"?>
<VTKFile type="UnstructuredGrid"  version="0.1"  >
<UnstructuredGrid>
<Piece  NumberOfPoints="101" NumberOfCells="100">
<Points>
<DataArray  type="Float64"  NumberOfComponents="3"  format="ascii">0 0 0  3e-08 0 0  6.000000000000001e-08 0 0  9e-08 0 0  1.2e-07 0 0  1.5e-07 0 0  1.8e-07 0 0  2.1e-07 0 0  2.4e-07 0 0  2.7e-07 0 0  3e-07 0 0  3.3e-07 0 0  3.6e-07 0 0  3.9e-07 0 0  4.200000000000001e-07 0 0  4.5e-07 0 0  4.800000000000001e-07 0 0  5.1e-07 0 0  5.4e-07 0 0  5.7e-07 0 0  6e-07 0 0  6.3e-07 0 0  6.6e-07 0 0  6.9e-07 0 0  7.2e-07 0 0  7.5e-07 0 0  7.799999999999999e-07 0 0  8.100000000000001e-07 0 0  8.400000000000001e-07 0 0  8.7e-07 0 0  9.000000000000001e-07 0 0  9.3e-07 0 0  9.600000000000001e-07 0 0  9.900000000000001e-07 0 0  1.02e-06 0 0  1.05e-06 0 0  1.08e-06 0 0  1.11e-06 0 0  1.14e-06 0 0  1.17e-06 0 0  1.2e-06 0 0  1.23e-06 0 0  1.26e-06 0 0  1.29e-06 0 0  1.32e-06 0 0  1.35e-06 0 0  1.38e-06 0 0  1.41e-06 0 0  1.44e-06 0 0  1.47e-06 0 0  1.5e-06 0 0  1.53e-06 0 0  1.56e-06 0 0  1.59e-06 0 0  1.62e-06 0 0  1.65e-06 0 0  1.68e-06 0 0  1.71e-06 0 0  1.74e-06 0 0  1.77e-06 0 0  1.8e-06 0 0  1.83e-06 0 0  1.86e-06 0 0  1.89e-06 0 0  1.92e-06 0 0  1.95e-06 0 0  1.98e-06 0 0  2.01e-06 0 0  2.04e-06 0 0  2.07e-06 0 0  2.1e-06 0 0  2.13e-06 0 0  2.16e-06 0 0  2.19e-06 0 0  2.22e-06 0 0  2.25e-06 0 0  2.28e-06 0 0  2.31e-06 0 0  2.34e-06 0 0  2.37e-06 0 0  2.4e-06 0 0  2.43e-06 0 0  2.46e-06 0 0  2.49e-06 0 0  2.52e-06 0 0  2.55e-06 0 0  2.58e-06 0 0  2.61e-06 0 0  2.64e-06 0 0  2.67e-06 0 0  2.7e-06 0 0  2.73e-06 0 0  2.76e-06 0 0  2.79e-06 0 0  2.82e-06 0 0  2.85e-06 0 0  2.88e-06 0 0  2.91e-06 0 0  2.94e-06 0 0  2.97e-06 0 0  3e-06 0 0  </DataArray>
</Points>
<Cells>
<DataArray  type="UInt32"  Name="connectivity"  format="ascii">0 1  1 2  2 3  3 4  4 5  5 6  6 7  7 8  8 9  9 10  10 11  11 12  12 13  13 14  14 15  15 16  16 17  17 18  18 19  19 20  20 21  21 22  22 23  23 24  24 25  25 26  26 27  27 28  28 29  29 30  30 31  31 32  32 33  33 34  34 35  35 36  36 37  37 38  38 39  39 40  40 41  41 42  42 43  43 44  44 45  45 46  46 47  47 48  48 49  49 50  50 51  51 52  52 53  53 54  54 55  55 56  56 57  57 58  58 59  59 60  60 61  61 62  62 63  63 64  64 65  65 66  66 67  67 68  68 69  69 70  70 71  71 72  72 73  73 74  74 75  75 76  76 77  77 78  78 79  79 80  80 81  81 82  82 83  83 84  84 85  85 86  86 87  87 88  88 89  89 90  90 91  91 92  92 93  93 94  94 95  95 96  96 97  97 98  98 99  99 100  </DataArray>
<DataArray  type="UInt32"  Name="offsets"  format="ascii">2 4 6 8 10 12 14 16 18 20 22 24 26 28 30 32 34 36 38 40 42 44 46 48 50 52 54 56 58 60 62 64 66 68 70 72 74 76 78 80 82 84 86 88 90 92 94 96 98 100 102 104 106 108 110 112 114 116 118 120 122 124 126 128 130 132 134 136 138 140 142 144 146 148 150 152 154 156 158 160 162 164 166 168 170 172 174 176 178 180 182 184 186 188 190 192 194 196 198 200 </DataArray>
<DataArray  type="UInt8"  Name="types"  format="ascii">3 3 3 3 3 3 3 3 3 3 3 3 3 3 3 3 3 3 3 3 3 3 3 3 3 3 3 3 3 3 3 3 3 3 3 3 3 3 3 3 3 3 3 3 3 3 3 3 3 3 3 3 3 3 3 3 3 3 3 3 3 3 3 3 3 3 3 3 3 3 3 3 3 3 3 3 3 3 3 3 3 3 3 3 3 3 3 3 3 3 3 3 3 3 3 3 3 3 3 3 </DataArray>
</Cells>
<PointData  Scalars="f_16"> 
<DataArray  type="Float64"  Name="f_16"  format="ascii">0.0000000000000000e+00  7.3107415364597921e+21  1.4614268176063793e+22  2.1903372142877094e+22  2.9170859895772953e+22  3.6409559228259829e+22  4.3612326347235679e+22  5.0772052923677619e+22  5.7881673108303479e+22  6.4934170505276031e+22  7.1922585097062945e+22  7.8840020113613623e+22  8.5679648839069646e+22  9.2434721349287761e+22  9.9098571173522670e+22  1.0566462187369266e+23  1.1212639353473282e+23  1.1847750915962859e+23  1.2471170096281765e+23  1.3082281655574843e+23  1.3680482501849053e+23  1.4265182285140619e+23  1.4835803980100980e+23  1.5391784455426739e+23  1.5932575029571976e+23  1.6457642012194645e+23  1.6966467230803093e+23  1.7458548542083381e+23  1.7933400327403071e+23  1.8390553972003085e+23  1.8829558327405079e+23  1.9249980156578619e+23  1.9651404561429323e+23  2.0033435392186666e+23  2.0395695638288067e+23  2.0737827800374054e+23  2.1059494243028016e+23  2.1360377527913099e+23  2.1640180726977964e+23  2.1898627715423026e+23  2.2135463444138624e+23  2.2350454191346720e+23  2.2543387793198487e+23  2.2714073853100568e+23  2.2862343929564043e+23  2.2988051702391032e+23  2.3091073117035441e+23  2.3171306506995656e+23  2.3228672694118716e+23  2.3263115066717279e+23  2.3274599635422405e+23  2.3263115066717259e+23  2.3228672694118686e+23  2.3171306506995622e+23  2.3091073117035401e+23  2.2988051702390989e+23  2.2862343929563989e+23  2.2714073853100511e+23  2.2543387793198420e+23  2.2350454191346647e+23  2.2135463444138533e+23  2.1898627715422929e+23  2.1640180726977850e+23  2.1360377527912978e+23  2.1059494243027882e+23  2.0737827800373906e+23  2.0395695638287913e+23  2.0033435392186505e+23  1.9651404561429152e+23  1.9249980156578435e+23  1.8829558327404878e+23  1.8390553972002874e+23  1.7933400327402843e+23  1.7458548542083146e+23  1.6966467230802868e+23  1.6457642012194417e+23  1.5932575029571758e+23  1.5391784455426527e+23  1.4835803980100765e+23  1.4265182285140411e+23  1.3680482501848855e+23  1.3082281655574647e+23  1.2471170096281582e+23  1.1847750915962693e+23  1.1212639353473126e+23  1.0566462187369125e+23  9.9098571173521462e+22  9.2434721349286670e+22  8.5679648839068673e+22  7.8840020113612851e+22  7.1922585097062274e+22  6.4934170505275435e+22  5.7881673108303043e+22  5.0772052923677233e+22  4.3612326347235326e+22  3.6409559228259624e+22  2.9170859895772768e+22  2.1903372142876943e+22  1.4614268176063762e+22  7.3107415364597753e+21  0.0000000000000000e+00  </DataArray> 
</PointData> 
</Piece>
</UnstructuredGrid>
</VTKFile>