<?xml version="1.0"?>
<VTKFile type="UnstructuredGrid"  version="0.1"  >
<UnstructuredGrid>
<Piece  NumberOfPoints="101" NumberOfCells="100">
<Points>
<DataArray  type="Float64"  NumberOfComponents="3"  format="ascii">0 0 0  3e-08 0 0  6.000000000000001e-08 0 0  9e-08 0 0  1.2e-07 0 0  1.5e-07 0 0  1.8e-07 0 0  2.1e-07 0 0  2.4e-07 0 0  2.7e-07 0 0  3e-07 0 0  3.3e-07 0 0  3.6e-07 0 0  3.9e-07 0 0  4.200000000000001e-07 0 0  4.5e-07 0 0  4.800000000000001e-07 0 0  5.1e-07 0 0  5.4e-07 0 0  5.7e-07 0 0  6e-07 0 0  6.3e-07 0 0  6.6e-07 0 0  6.9e-07 0 0  7.2e-07 0 0  7.5e-07 0 0  7.799999999999999e-07 0 0  8.100000000000001e-07 0 0  8.400000000000001e-07 0 0  8.7e-07 0 0  9.000000000000001e-07 0 0  9.3e-07 0 0  9.600000000000001e-07 0 0  9.900000000000001e-07 0 0  1.02e-06 0 0  1.05e-06 0 0  1.08e-06 0 0  1.11e-06 0 0  1.14e-06 0 0  1.17e-06 0 0  1.2e-06 0 0  1.23e-06 0 0  1.26e-06 0 0  1.29e-06 0 0  1.32e-06 0 0  1.35e-06 0 0  1.38e-06 0 0  1.41e-06 0 0  1.44e-06 0 0  1.47e-06 0 0  1.5e-06 0 0  1.53e-06 0 0  1.56e-06 0 0  1.59e-06 0 0  1.62e-06 0 0  1.65e-06 0 0  1.68e-06 0 0  1.71e-06 0 0  1.74e-06 0 0  1.77e-06 0 0  1.8e-06 0 0  1.83e-06 0 0  1.86e-06 0 0  1.89e-06 0 0  1.92e-06 0 0  1.95e-06 0 0  1.98e-06 0 0  2.01e-06 0 0  2.04e-06 0 0  2.07e-06 0 0  2.1e-06 0 0  2.13e-06 0 0  2.16e-06 0 0  2.19e-06 0 0  2.22e-06 0 0  2.25e-06 0 0  2.28e-06 0 0  2.31e-06 0 0  2.34e-06 0 0  2.37e-06 0 0  2.4e-06 0 0  2.43e-06 0 0  2.46e-06 0 0  2.49e-06 0 0  2.52e-06 0 0  2.55e-06 0 0  2.58e-06 0 0  2.61e-06 0 0  2.64e-06 0 0  2.67e-06 0 0  2.7e-06 0 0  2.73e-06 0 0  2.76e-06 0 0  2.79e-06 0 0  2.82e-06 0 0  2.85e-06 0 0  2.88e-06 0 0  2.91e-06 0 0  2.94e-06 0 0  2.97e-06 0 0  3e-06 0 0  </DataArray>
</Points>
<Cells>
<DataArray  type="UInt32"  Name="connectivity"  format="ascii">0 1  1 2  2 3  3 4  4 5  5 6  6 7  7 8  8 9  9 10  10 11  11 12  12 13  13 14  14 15  15 16  16 17  17 18  18 19  19 20  20 21  21 22  22 23  23 24  24 25  25 26  26 27  27 28  28 29  29 30  30 31  31 32  32 33  33 34  34 35  35 36  36 37  37 38  38 39  39 40  40 41  41 42  42 43  43 44  44 45  45 46  46 47  47 48  48 49  49 50  50 51  51 52  52 53  53 54  54 55  55 56  56 57  57 58  58 59  59 60  60 61  61 62  62 63  63 64  64 65  65 66  66 67  67 68  68 69  69 70  70 71  71 72  72 73  73 74  74 75  75 76  76 77  77 78  78 79  79 80  80 81  81 82  82 83  83 84  84 85  85 86  86 87  87 88  88 89  89 90  90 91  91 92  92 93  93 94  94 95  95 96  96 97  97 98  98 99  99 100  </DataArray>
<DataArray  type="UInt32"  Name="offsets"  format="ascii">2 4 6 8 10 12 14 16 18 20 22 24 26 28 30 32 34 36 38 40 42 44 46 48 50 52 54 56 58 60 62 64 66 68 70 72 74 76 78 80 82 84 86 88 90 92 94 96 98 100 102 104 106 108 110 112 114 116 118 120 122 124 126 128 130 132 134 136 138 140 142 144 146 148 150 152 154 156 158 160 162 164 166 168 170 172 174 176 178 180 182 184 186 188 190 192 194 196 198 200 </DataArray>
<DataArray  type="UInt8"  Name="types"  format="ascii">3 3 3 3 3 3 3 3 3 3 3 3 3 3 3 3 3 3 3 3 3 3 3 3 3 3 3 3 3 3 3 3 3 3 3 3 3 3 3 3 3 3 3 3 3 3 3 3 3 3 3 3 3 3 3 3 3 3 3 3 3 3 3 3 3 3 3 3 3 3 3 3 3 3 3 3 3 3 3 3 3 3 3 3 3 3 3 3 3 3 3 3 3 3 3 3 3 3 3 3 </DataArray>
</Cells>
<PointData  Scalars="f_16"> 
<DataArray  type="Float64"  Name="f_16"  format="ascii">0.0000000000000000e+00  4.1282352075015592e+20  8.2523963452611835e+20  1.2368413364151905e+21  1.6472224252308829e+21  2.0559779043844426e+21  2.4627043815675920e+21  2.8670004668520339e+21  3.2684671688128479e+21  3.6667082882848611e+21  4.0613308093633869e+21  4.4519452872634752e+21  4.8381662326548962e+21  5.2196124920935665e+21  5.5959076241739853e+21  5.9666802710314505e+21  6.3315645248274380e+21  6.6902002888564571e+21  7.0422336329180355e+21  7.3873171426030859e+21  7.7251102621499822e+21  8.0552796305319914e+21  8.3774994104443533e+21  8.6914516098663569e+21  8.9968263958810843e+21  9.2933224004430856e+21  9.5806470177922482e+21  9.8585166932203778e+21  1.0126657202905435e+22  1.0384803924537357e+22  1.0632702098468325e+22  1.0870107079129782e+22  1.1096784576468071e+22  1.1312510887160422e+22  1.1517073115383138e+22  1.1710269382914063e+22  1.1891909028362005e+22  1.2061812795326532e+22  1.2219813009302384e+22  1.2365753743153960e+22  1.2499490970996589e+22  1.2620892710332682e+22  1.2729839152302528e+22  1.2826222779921164e+22  1.2909948474184673e+22  1.2980933607941135e+22  1.3039108127433672e+22  1.3084414621435044e+22  1.3116808377905592e+22  1.3136257428118626e+22  1.3142742578209690e+22  1.3136257428118613e+22  1.3116808377905575e+22  1.3084414621435021e+22  1.3039108127433643e+22  1.2980933607941099e+22  1.2909948474184633e+22  1.2826222779921125e+22  1.2729839152302481e+22  1.2620892710332633e+22  1.2499490970996528e+22  1.2365753743153893e+22  1.2219813009302309e+22  1.2061812795326452e+22  1.1891909028361919e+22  1.1710269382913975e+22  1.1517073115383048e+22  1.1312510887160327e+22  1.1096784576467972e+22  1.0870107079129675e+22  1.0632702098468208e+22  1.0384803924537233e+22  1.0126657202905302e+22  9.8585166932202435e+21  9.5806470177921182e+21  9.2933224004429525e+21  8.9968263958809564e+21  8.6914516098662353e+21  8.3774994104442306e+21  8.0552796305318719e+21  7.7251102621498689e+21  7.3873171426029748e+21  7.0422336329179317e+21  6.6902002888563638e+21  6.3315645248273478e+21  5.9666802710313697e+21  5.5959076241739151e+21  5.2196124920935025e+21  4.8381662326548385e+21  4.4519452872634291e+21  4.0613308093633454e+21  3.6667082882848239e+21  3.2684671688128201e+21  2.8670004668520092e+21  2.4627043815675711e+21  2.0559779043844303e+21  1.6472224252308716e+21  1.2368413364151813e+21  8.2523963452611612e+20  4.1282352075015481e+20  0.0000000000000000e+00  </DataArray> 
</PointData> 
</Piece>
</UnstructuredGrid>
</VTKFile>