<?xml version="1.0"?>
<VTKFile type="UnstructuredGrid"  version="0.1"  >
<UnstructuredGrid>
<Piece  NumberOfPoints="101" NumberOfCells="100">
<Points>
<DataArray  type="Float64"  NumberOfComponents="3"  format="ascii">0 0 0  3e-08 0 0  6.000000000000001e-08 0 0  9e-08 0 0  1.2e-07 0 0  1.5e-07 0 0  1.8e-07 0 0  2.1e-07 0 0  2.4e-07 0 0  2.7e-07 0 0  3e-07 0 0  3.3e-07 0 0  3.6e-07 0 0  3.9e-07 0 0  4.200000000000001e-07 0 0  4.5e-07 0 0  4.800000000000001e-07 0 0  5.1e-07 0 0  5.4e-07 0 0  5.7e-07 0 0  6e-07 0 0  6.3e-07 0 0  6.6e-07 0 0  6.9e-07 0 0  7.2e-07 0 0  7.5e-07 0 0  7.799999999999999e-07 0 0  8.100000000000001e-07 0 0  8.400000000000001e-07 0 0  8.7e-07 0 0  9.000000000000001e-07 0 0  9.3e-07 0 0  9.600000000000001e-07 0 0  9.900000000000001e-07 0 0  1.02e-06 0 0  1.05e-06 0 0  1.08e-06 0 0  1.11e-06 0 0  1.14e-06 0 0  1.17e-06 0 0  1.2e-06 0 0  1.23e-06 0 0  1.26e-06 0 0  1.29e-06 0 0  1.32e-06 0 0  1.35e-06 0 0  1.38e-06 0 0  1.41e-06 0 0  1.44e-06 0 0  1.47e-06 0 0  1.5e-06 0 0  1.53e-06 0 0  1.56e-06 0 0  1.59e-06 0 0  1.62e-06 0 0  1.65e-06 0 0  1.68e-06 0 0  1.71e-06 0 0  1.74e-06 0 0  1.77e-06 0 0  1.8e-06 0 0  1.83e-06 0 0  1.86e-06 0 0  1.89e-06 0 0  1.92e-06 0 0  1.95e-06 0 0  1.98e-06 0 0  2.01e-06 0 0  2.04e-06 0 0  2.07e-06 0 0  2.1e-06 0 0  2.13e-06 0 0  2.16e-06 0 0  2.19e-06 0 0  2.22e-06 0 0  2.25e-06 0 0  2.28e-06 0 0  2.31e-06 0 0  2.34e-06 0 0  2.37e-06 0 0  2.4e-06 0 0  2.43e-06 0 0  2.46e-06 0 0  2.49e-06 0 0  2.52e-06 0 0  2.55e-06 0 0  2.58e-06 0 0  2.61e-06 0 0  2.64e-06 0 0  2.67e-06 0 0  2.7e-06 0 0  2.73e-06 0 0  2.76e-06 0 0  2.79e-06 0 0  2.82e-06 0 0  2.85e-06 0 0  2.88e-06 0 0  2.91e-06 0 0  2.94e-06 0 0  2.97e-06 0 0  3e-06 0 0  </DataArray>
</Points>
<Cells>
<DataArray  type="UInt32"  Name="connectivity"  format="ascii">0 1  1 2  2 3  3 4  4 5  5 6  6 7  7 8  8 9  9 10  10 11  11 12  12 13  13 14  14 15  15 16  16 17  17 18  18 19  19 20  20 21  21 22  22 23  23 24  24 25  25 26  26 27  27 28  28 29  29 30  30 31  31 32  32 33  33 34  34 35  35 36  36 37  37 38  38 39  39 40  40 41  41 42  42 43  43 44  44 45  45 46  46 47  47 48  48 49  49 50  50 51  51 52  52 53  53 54  54 55  55 56  56 57  57 58  58 59  59 60  60 61  61 62  62 63  63 64  64 65  65 66  66 67  67 68  68 69  69 70  70 71  71 72  72 73  73 74  74 75  75 76  76 77  77 78  78 79  79 80  80 81  81 82  82 83  83 84  84 85  85 86  86 87  87 88  88 89  89 90  90 91  91 92  92 93  93 94  94 95  95 96  96 97  97 98  98 99  99 100  </DataArray>
<DataArray  type="UInt32"  Name="offsets"  format="ascii">2 4 6 8 10 12 14 16 18 20 22 24 26 28 30 32 34 36 38 40 42 44 46 48 50 52 54 56 58 60 62 64 66 68 70 72 74 76 78 80 82 84 86 88 90 92 94 96 98 100 102 104 106 108 110 112 114 116 118 120 122 124 126 128 130 132 134 136 138 140 142 144 146 148 150 152 154 156 158 160 162 164 166 168 170 172 174 176 178 180 182 184 186 188 190 192 194 196 198 200 </DataArray>
<DataArray  type="UInt8"  Name="types"  format="ascii">3 3 3 3 3 3 3 3 3 3 3 3 3 3 3 3 3 3 3 3 3 3 3 3 3 3 3 3 3 3 3 3 3 3 3 3 3 3 3 3 3 3 3 3 3 3 3 3 3 3 3 3 3 3 3 3 3 3 3 3 3 3 3 3 3 3 3 3 3 3 3 3 3 3 3 3 3 3 3 3 3 3 3 3 3 3 3 3 3 3 3 3 3 3 3 3 3 3 3 3 </DataArray>
</Cells>
<PointData  Scalars="f_16"> 
<DataArray  type="Float64"  Name="f_16"  format="ascii">0.0000000000000000e+00  1.0760436878423788e+21  2.1510254504768021e+21  3.2238844106872890e+21  4.2935617862075721e+21  5.3590019346113610e+21  6.4191533951039811e+21  7.4729699261872278e+21  8.5194115381734178e+21  9.5574455195296565e+21  1.0586047456039439e+22  1.1604202241775806e+22  1.2610905080888342e+22  1.3605162479215368e+22  1.4585993224742744e+22  1.5552429355941642e+22  1.6503517117029743e+22  1.7438317899213026e+22  1.8355909166979336e+22  1.9255385368529560e+22  2.0135858829447896e+22  2.0996460628729383e+22  2.1836341456299975e+22  2.2654672451183068e+22  2.3450646019485221e+22  2.4223476631393798e+22  2.4972401596400067e+22  2.5696681815982670e+22  2.6395602513008592e+22  2.7068473937131909e+22  2.7714632045494108e+22  2.8333439158054210e+22  2.8924284586901998e+22  2.9486585238933194e+22  3.0019786191292015e+22  3.0523361239013010e+22  3.0996813414321789e+22  3.1439675477082283e+22  3.1851510375906300e+22  3.2231911679470489e+22  3.2580503977614973e+22  3.2896943251827871e+22  3.3180917214750005e+22  3.3432145618364849e+22  3.3650380530569450e+22  3.3835406579853496e+22  3.3987041167845011e+22  3.4105134649512869e+22  3.4189570480848390e+22  3.4240265333880197e+22  3.4257169178908852e+22  3.4240265333880167e+22  3.4189570480848343e+22  3.4105134649512810e+22  3.3987041167844940e+22  3.3835406579853412e+22  3.3650380530569353e+22  3.3432145618364745e+22  3.3180917214749892e+22  3.2896943251827745e+22  3.2580503977614834e+22  3.2231911679470334e+22  3.1851510375906124e+22  3.1439675477082090e+22  3.0996813414321575e+22  3.0523361239012787e+22  3.0019786191291780e+22  2.9486585238932943e+22  2.8924284586901729e+22  2.8333439158053925e+22  2.7714632045493794e+22  2.7068473937131582e+22  2.6395602513008244e+22  2.5696681815982318e+22  2.4972401596399723e+22  2.4223476631393450e+22  2.3450646019484882e+22  2.2654672451182749e+22  2.1836341456299656e+22  2.0996460628729068e+22  2.0135858829447603e+22  1.9255385368529270e+22  1.8355909166979070e+22  1.7438317899212785e+22  1.6503517117029514e+22  1.5552429355941436e+22  1.4585993224742565e+22  1.3605162479215209e+22  1.2610905080888197e+22  1.1604202241775689e+22  1.0586047456039332e+22  9.5574455195295621e+21  8.5194115381733464e+21  7.4729699261871638e+21  6.4191533951039255e+21  5.3590019346113254e+21  4.2935617862075406e+21  3.2238844106872639e+21  2.1510254504767945e+21  1.0760436878423751e+21  0.0000000000000000e+00  </DataArray> 
</PointData> 
</Piece>
</UnstructuredGrid>
</VTKFile>