<?xml version="1.0"?>
<VTKFile type="UnstructuredGrid"  version="0.1"  >
<UnstructuredGrid>
<Piece  NumberOfPoints="101" NumberOfCells="100">
<Points>
<DataArray  type="Float64"  NumberOfComponents="3"  format="ascii">0 0 0  3e-08 0 0  6.000000000000001e-08 0 0  9e-08 0 0  1.2e-07 0 0  1.5e-07 0 0  1.8e-07 0 0  2.1e-07 0 0  2.4e-07 0 0  2.7e-07 0 0  3e-07 0 0  3.3e-07 0 0  3.6e-07 0 0  3.9e-07 0 0  4.200000000000001e-07 0 0  4.5e-07 0 0  4.800000000000001e-07 0 0  5.1e-07 0 0  5.4e-07 0 0  5.7e-07 0 0  6e-07 0 0  6.3e-07 0 0  6.6e-07 0 0  6.9e-07 0 0  7.2e-07 0 0  7.5e-07 0 0  7.799999999999999e-07 0 0  8.100000000000001e-07 0 0  8.400000000000001e-07 0 0  8.7e-07 0 0  9.000000000000001e-07 0 0  9.3e-07 0 0  9.600000000000001e-07 0 0  9.900000000000001e-07 0 0  1.02e-06 0 0  1.05e-06 0 0  1.08e-06 0 0  1.11e-06 0 0  1.14e-06 0 0  1.17e-06 0 0  1.2e-06 0 0  1.23e-06 0 0  1.26e-06 0 0  1.29e-06 0 0  1.32e-06 0 0  1.35e-06 0 0  1.38e-06 0 0  1.41e-06 0 0  1.44e-06 0 0  1.47e-06 0 0  1.5e-06 0 0  1.53e-06 0 0  1.56e-06 0 0  1.59e-06 0 0  1.62e-06 0 0  1.65e-06 0 0  1.68e-06 0 0  1.71e-06 0 0  1.74e-06 0 0  1.77e-06 0 0  1.8e-06 0 0  1.83e-06 0 0  1.86e-06 0 0  1.89e-06 0 0  1.92e-06 0 0  1.95e-06 0 0  1.98e-06 0 0  2.01e-06 0 0  2.04e-06 0 0  2.07e-06 0 0  2.1e-06 0 0  2.13e-06 0 0  2.16e-06 0 0  2.19e-06 0 0  2.22e-06 0 0  2.25e-06 0 0  2.28e-06 0 0  2.31e-06 0 0  2.34e-06 0 0  2.37e-06 0 0  2.4e-06 0 0  2.43e-06 0 0  2.46e-06 0 0  2.49e-06 0 0  2.52e-06 0 0  2.55e-06 0 0  2.58e-06 0 0  2.61e-06 0 0  2.64e-06 0 0  2.67e-06 0 0  2.7e-06 0 0  2.73e-06 0 0  2.76e-06 0 0  2.79e-06 0 0  2.82e-06 0 0  2.85e-06 0 0  2.88e-06 0 0  2.91e-06 0 0  2.94e-06 0 0  2.97e-06 0 0  3e-06 0 0  </DataArray>
</Points>
<Cells>
<DataArray  type="UInt32"  Name="connectivity"  format="ascii">0 1  1 2  2 3  3 4  4 5  5 6  6 7  7 8  8 9  9 10  10 11  11 12  12 13  13 14  14 15  15 16  16 17  17 18  18 19  19 20  20 21  21 22  22 23  23 24  24 25  25 26  26 27  27 28  28 29  29 30  30 31  31 32  32 33  33 34  34 35  35 36  36 37  37 38  38 39  39 40  40 41  41 42  42 43  43 44  44 45  45 46  46 47  47 48  48 49  49 50  50 51  51 52  52 53  53 54  54 55  55 56  56 57  57 58  58 59  59 60  60 61  61 62  62 63  63 64  64 65  65 66  66 67  67 68  68 69  69 70  70 71  71 72  72 73  73 74  74 75  75 76  76 77  77 78  78 79  79 80  80 81  81 82  82 83  83 84  84 85  85 86  86 87  87 88  88 89  89 90  90 91  91 92  92 93  93 94  94 95  95 96  96 97  97 98  98 99  99 100  </DataArray>
<DataArray  type="UInt32"  Name="offsets"  format="ascii">2 4 6 8 10 12 14 16 18 20 22 24 26 28 30 32 34 36 38 40 42 44 46 48 50 52 54 56 58 60 62 64 66 68 70 72 74 76 78 80 82 84 86 88 90 92 94 96 98 100 102 104 106 108 110 112 114 116 118 120 122 124 126 128 130 132 134 136 138 140 142 144 146 148 150 152 154 156 158 160 162 164 166 168 170 172 174 176 178 180 182 184 186 188 190 192 194 196 198 200 </DataArray>
<DataArray  type="UInt8"  Name="types"  format="ascii">3 3 3 3 3 3 3 3 3 3 3 3 3 3 3 3 3 3 3 3 3 3 3 3 3 3 3 3 3 3 3 3 3 3 3 3 3 3 3 3 3 3 3 3 3 3 3 3 3 3 3 3 3 3 3 3 3 3 3 3 3 3 3 3 3 3 3 3 3 3 3 3 3 3 3 3 3 3 3 3 3 3 3 3 3 3 3 3 3 3 3 3 3 3 3 3 3 3 3 3 </DataArray>
</Cells>
<PointData  Scalars="f_16"> 
<DataArray  type="Float64"  Name="f_16"  format="ascii">0.0000000000000000e+00  4.6534239127696238e+20  9.3022554579520035e+20  1.3941906800072259e+21  1.8567799163407602e+21  2.3175367350686148e+21  2.7760064248385498e+21  3.2317365314184764e+21  3.6842773042141604e+21  4.1331821401187628e+21  4.5780080242561793e+21  5.0183159671832487e+21  5.4536714381193202e+21  5.8836447937756827e+21  6.3078117023616168e+21  6.7257535623486348e+21  7.1370579155796644e+21  7.5413188543154382e+21  7.9381374218164429e+21  8.3271220060650409e+21  8.7078887262392534e+21  9.0800618115567955e+21  9.4432739721154616e+21  9.7971667613639130e+21  1.0141390929845159e+22  1.0475606769863599e+22  1.0799484450735498e+22  1.1112704344292067e+22  1.1414957340313860e+22  1.1705945151585252e+22  1.1985380608267904e+22  1.2252987941302722e+22  1.2508503054560633e+22  1.2751673785473567e+22  1.2982260153888474e+22  1.3200034598898759e+22  1.3404782203419419e+22  1.3596300906284280e+22  1.3774401701655945e+22  1.3938908825551754e+22  1.4089659929301612e+22  1.4226506239766520e+22  1.4349312706159705e+22  1.4457958133325445e+22  1.4552335301344049e+22  1.4632351071344972e+22  1.4697926477423653e+22  1.4748996804571300e+22  1.4785511652540820e+22  1.4807434985585756e+22  1.4814745168023229e+22  1.4807434985585745e+22  1.4785511652540799e+22  1.4748996804571273e+22  1.4697926477423619e+22  1.4632351071344936e+22  1.4552335301344007e+22  1.4457958133325401e+22  1.4349312706159659e+22  1.4226506239766467e+22  1.4089659929301552e+22  1.3938908825551687e+22  1.3774401701655867e+22  1.3596300906284194e+22  1.3404782203419327e+22  1.3200034598898660e+22  1.2982260153888373e+22  1.2751673785473462e+22  1.2508503054560522e+22  1.2252987941302598e+22  1.1985380608267770e+22  1.1705945151585112e+22  1.1414957340313711e+22  1.1112704344291914e+22  1.0799484450735351e+22  1.0475606769863452e+22  1.0141390929845016e+22  9.7971667613637767e+21  9.4432739721153264e+21  9.0800618115566645e+21  8.7078887262391307e+21  8.3271220060649192e+21  7.9381374218163286e+21  7.5413188543153355e+21  7.1370579155795659e+21  6.7257535623485446e+21  6.3078117023615403e+21  5.8836447937756135e+21  5.4536714381192583e+21  5.0183159671831984e+21  4.5780080242561348e+21  4.1331821401187224e+21  3.6842773042141310e+21  3.2317365314184497e+21  2.7760064248385267e+21  2.3175367350686012e+21  1.8567799163407478e+21  1.3941906800072157e+21  9.3022554579519773e+20  4.6534239127696107e+20  0.0000000000000000e+00  </DataArray> 
</PointData> 
</Piece>
</UnstructuredGrid>
</VTKFile>