<?xml version="1.0"?>
<VTKFile type="UnstructuredGrid"  version="0.1"  >
<UnstructuredGrid>
<Piece  NumberOfPoints="101" NumberOfCells="100">
<Points>
<DataArray  type="Float64"  NumberOfComponents="3"  format="ascii">0 0 0  3e-08 0 0  6.000000000000001e-08 0 0  9e-08 0 0  1.2e-07 0 0  1.5e-07 0 0  1.8e-07 0 0  2.1e-07 0 0  2.4e-07 0 0  2.7e-07 0 0  3e-07 0 0  3.3e-07 0 0  3.6e-07 0 0  3.9e-07 0 0  4.200000000000001e-07 0 0  4.5e-07 0 0  4.800000000000001e-07 0 0  5.1e-07 0 0  5.4e-07 0 0  5.7e-07 0 0  6e-07 0 0  6.3e-07 0 0  6.6e-07 0 0  6.9e-07 0 0  7.2e-07 0 0  7.5e-07 0 0  7.799999999999999e-07 0 0  8.100000000000001e-07 0 0  8.400000000000001e-07 0 0  8.7e-07 0 0  9.000000000000001e-07 0 0  9.3e-07 0 0  9.600000000000001e-07 0 0  9.900000000000001e-07 0 0  1.02e-06 0 0  1.05e-06 0 0  1.08e-06 0 0  1.11e-06 0 0  1.14e-06 0 0  1.17e-06 0 0  1.2e-06 0 0  1.23e-06 0 0  1.26e-06 0 0  1.29e-06 0 0  1.32e-06 0 0  1.35e-06 0 0  1.38e-06 0 0  1.41e-06 0 0  1.44e-06 0 0  1.47e-06 0 0  1.5e-06 0 0  1.53e-06 0 0  1.56e-06 0 0  1.59e-06 0 0  1.62e-06 0 0  1.65e-06 0 0  1.68e-06 0 0  1.71e-06 0 0  1.74e-06 0 0  1.77e-06 0 0  1.8e-06 0 0  1.83e-06 0 0  1.86e-06 0 0  1.89e-06 0 0  1.92e-06 0 0  1.95e-06 0 0  1.98e-06 0 0  2.01e-06 0 0  2.04e-06 0 0  2.07e-06 0 0  2.1e-06 0 0  2.13e-06 0 0  2.16e-06 0 0  2.19e-06 0 0  2.22e-06 0 0  2.25e-06 0 0  2.28e-06 0 0  2.31e-06 0 0  2.34e-06 0 0  2.37e-06 0 0  2.4e-06 0 0  2.43e-06 0 0  2.46e-06 0 0  2.49e-06 0 0  2.52e-06 0 0  2.55e-06 0 0  2.58e-06 0 0  2.61e-06 0 0  2.64e-06 0 0  2.67e-06 0 0  2.7e-06 0 0  2.73e-06 0 0  2.76e-06 0 0  2.79e-06 0 0  2.82e-06 0 0  2.85e-06 0 0  2.88e-06 0 0  2.91e-06 0 0  2.94e-06 0 0  2.97e-06 0 0  3e-06 0 0  </DataArray>
</Points>
<Cells>
<DataArray  type="UInt32"  Name="connectivity"  format="ascii">0 1  1 2  2 3  3 4  4 5  5 6  6 7  7 8  8 9  9 10  10 11  11 12  12 13  13 14  14 15  15 16  16 17  17 18  18 19  19 20  20 21  21 22  22 23  23 24  24 25  25 26  26 27  27 28  28 29  29 30  30 31  31 32  32 33  33 34  34 35  35 36  36 37  37 38  38 39  39 40  40 41  41 42  42 43  43 44  44 45  45 46  46 47  47 48  48 49  49 50  50 51  51 52  52 53  53 54  54 55  55 56  56 57  57 58  58 59  59 60  60 61  61 62  62 63  63 64  64 65  65 66  66 67  67 68  68 69  69 70  70 71  71 72  72 73  73 74  74 75  75 76  76 77  77 78  78 79  79 80  80 81  81 82  82 83  83 84  84 85  85 86  86 87  87 88  88 89  89 90  90 91  91 92  92 93  93 94  94 95  95 96  96 97  97 98  98 99  99 100  </DataArray>
<DataArray  type="UInt32"  Name="offsets"  format="ascii">2 4 6 8 10 12 14 16 18 20 22 24 26 28 30 32 34 36 38 40 42 44 46 48 50 52 54 56 58 60 62 64 66 68 70 72 74 76 78 80 82 84 86 88 90 92 94 96 98 100 102 104 106 108 110 112 114 116 118 120 122 124 126 128 130 132 134 136 138 140 142 144 146 148 150 152 154 156 158 160 162 164 166 168 170 172 174 176 178 180 182 184 186 188 190 192 194 196 198 200 </DataArray>
<DataArray  type="UInt8"  Name="types"  format="ascii">3 3 3 3 3 3 3 3 3 3 3 3 3 3 3 3 3 3 3 3 3 3 3 3 3 3 3 3 3 3 3 3 3 3 3 3 3 3 3 3 3 3 3 3 3 3 3 3 3 3 3 3 3 3 3 3 3 3 3 3 3 3 3 3 3 3 3 3 3 3 3 3 3 3 3 3 3 3 3 3 3 3 3 3 3 3 3 3 3 3 3 3 3 3 3 3 3 3 3 3 </DataArray>
</Cells>
<PointData  Scalars="f_16"> 
<DataArray  type="Float64"  Name="f_16"  format="ascii">0.0000000000000000e+00  1.9582621237387668e+21  3.9145916791677759e+21  5.8670580051890227e+21  7.8137342532458297e+21  9.7526992888898771e+21  1.1682039587709123e+22  1.3599851123745510e+22  1.5504241248538846e+22  1.7393330558942459e+22  1.9265254751867318e+22  2.1118166464124221e+22  2.2950237095548294e+22  2.4759658613606703e+22  2.6544645337708541e+22  2.8303435701456019e+22  3.0034293991097925e+22  3.1735512058469487e+22  3.3405411006728490e+22  3.5042342847223731e+22  3.6644692125860806e+22  3.8210877517360297e+22  3.9739353385834843e+22  4.1228611310145075e+22  4.2677181572529131e+22  4.4083634609036571e+22  4.5446582420335235e+22  4.6764679941499031e+22  4.8036626369424390e+22  4.9261166446565797e+22  5.0437091699723380e+22  5.1563241632659795e+22  5.2638504871369877e+22  5.3661820260872343e+22  5.4632177912441578e+22  5.5548620200245675e+22  5.6410242706407367e+22  5.7216195113555157e+22  5.7965682043983755e+22  5.8657963844595612e+22  5.9292357316849204e+22  5.9868236390993297e+22  6.0385032743922080e+22  6.0842236360041372e+22  6.1239396034592295e+22  6.1576119818935777e+22  6.1852075407358504e+22  6.2066990465018422e+22  6.2220652896706313e+22  6.2312911056158056e+22  6.2343673895711217e+22  6.2312911056158014e+22  6.2220652896706229e+22  6.2066990465018313e+22  6.1852075407358369e+22  6.1576119818935626e+22  6.1239396034592127e+22  6.0842236360041196e+22  6.0385032743921887e+22  5.9868236390993079e+22  5.9292357316848944e+22  5.8657963844595318e+22  5.7965682043983420e+22  5.7216195113554813e+22  5.6410242706406982e+22  5.5548620200245272e+22  5.4632177912441142e+22  5.3661820260871882e+22  5.2638504871369382e+22  5.1563241632659266e+22  5.0437091699722809e+22  4.9261166446565202e+22  4.8036626369423744e+22  4.6764679941498377e+22  4.5446582420334606e+22  4.4083634609035925e+22  4.2677181572528493e+22  4.1228611310144463e+22  3.9739353385834230e+22  3.8210877517359701e+22  3.6644692125860244e+22  3.5042342847223177e+22  3.3405411006727974e+22  3.1735512058469017e+22  3.0034293991097481e+22  2.8303435701455621e+22  2.6544645337708197e+22  2.4759658613606388e+22  2.2950237095548005e+22  2.1118166464123986e+22  1.9265254751867108e+22  1.7393330558942273e+22  1.5504241248538703e+22  1.3599851123745384e+22  1.1682039587709013e+22  9.7526992888898079e+21  7.8137342532457689e+21  5.8670580051889734e+21  3.9145916791677612e+21  1.9582621237387594e+21  0.0000000000000000e+00  </DataArray> 
</PointData> 
</Piece>
</UnstructuredGrid>
</VTKFile>