<?xml version="1.0"?>
<VTKFile type="UnstructuredGrid"  version="0.1"  >
<UnstructuredGrid>
<Piece  NumberOfPoints="101" NumberOfCells="100">
<Points>
<DataArray  type="Float64"  NumberOfComponents="3"  format="ascii">0 0 0  3e-08 0 0  6.000000000000001e-08 0 0  9e-08 0 0  1.2e-07 0 0  1.5e-07 0 0  1.8e-07 0 0  2.1e-07 0 0  2.4e-07 0 0  2.7e-07 0 0  3e-07 0 0  3.3e-07 0 0  3.6e-07 0 0  3.9e-07 0 0  4.200000000000001e-07 0 0  4.5e-07 0 0  4.800000000000001e-07 0 0  5.1e-07 0 0  5.4e-07 0 0  5.7e-07 0 0  6e-07 0 0  6.3e-07 0 0  6.6e-07 0 0  6.9e-07 0 0  7.2e-07 0 0  7.5e-07 0 0  7.799999999999999e-07 0 0  8.100000000000001e-07 0 0  8.400000000000001e-07 0 0  8.7e-07 0 0  9.000000000000001e-07 0 0  9.3e-07 0 0  9.600000000000001e-07 0 0  9.900000000000001e-07 0 0  1.02e-06 0 0  1.05e-06 0 0  1.08e-06 0 0  1.11e-06 0 0  1.14e-06 0 0  1.17e-06 0 0  1.2e-06 0 0  1.23e-06 0 0  1.26e-06 0 0  1.29e-06 0 0  1.32e-06 0 0  1.35e-06 0 0  1.38e-06 0 0  1.41e-06 0 0  1.44e-06 0 0  1.47e-06 0 0  1.5e-06 0 0  1.53e-06 0 0  1.56e-06 0 0  1.59e-06 0 0  1.62e-06 0 0  1.65e-06 0 0  1.68e-06 0 0  1.71e-06 0 0  1.74e-06 0 0  1.77e-06 0 0  1.8e-06 0 0  1.83e-06 0 0  1.86e-06 0 0  1.89e-06 0 0  1.92e-06 0 0  1.95e-06 0 0  1.98e-06 0 0  2.01e-06 0 0  2.04e-06 0 0  2.07e-06 0 0  2.1e-06 0 0  2.13e-06 0 0  2.16e-06 0 0  2.19e-06 0 0  2.22e-06 0 0  2.25e-06 0 0  2.28e-06 0 0  2.31e-06 0 0  2.34e-06 0 0  2.37e-06 0 0  2.4e-06 0 0  2.43e-06 0 0  2.46e-06 0 0  2.49e-06 0 0  2.52e-06 0 0  2.55e-06 0 0  2.58e-06 0 0  2.61e-06 0 0  2.64e-06 0 0  2.67e-06 0 0  2.7e-06 0 0  2.73e-06 0 0  2.76e-06 0 0  2.79e-06 0 0  2.82e-06 0 0  2.85e-06 0 0  2.88e-06 0 0  2.91e-06 0 0  2.94e-06 0 0  2.97e-06 0 0  3e-06 0 0  </DataArray>
</Points>
<Cells>
<DataArray  type="UInt32"  Name="connectivity"  format="ascii">0 1  1 2  2 3  3 4  4 5  5 6  6 7  7 8  8 9  9 10  10 11  11 12  12 13  13 14  14 15  15 16  16 17  17 18  18 19  19 20  20 21  21 22  22 23  23 24  24 25  25 26  26 27  27 28  28 29  29 30  30 31  31 32  32 33  33 34  34 35  35 36  36 37  37 38  38 39  39 40  40 41  41 42  42 43  43 44  44 45  45 46  46 47  47 48  48 49  49 50  50 51  51 52  52 53  53 54  54 55  55 56  56 57  57 58  58 59  59 60  60 61  61 62  62 63  63 64  64 65  65 66  66 67  67 68  68 69  69 70  70 71  71 72  72 73  73 74  74 75  75 76  76 77  77 78  78 79  79 80  80 81  81 82  82 83  83 84  84 85  85 86  86 87  87 88  88 89  89 90  90 91  91 92  92 93  93 94  94 95  95 96  96 97  97 98  98 99  99 100  </DataArray>
<DataArray  type="UInt32"  Name="offsets"  format="ascii">2 4 6 8 10 12 14 16 18 20 22 24 26 28 30 32 34 36 38 40 42 44 46 48 50 52 54 56 58 60 62 64 66 68 70 72 74 76 78 80 82 84 86 88 90 92 94 96 98 100 102 104 106 108 110 112 114 116 118 120 122 124 126 128 130 132 134 136 138 140 142 144 146 148 150 152 154 156 158 160 162 164 166 168 170 172 174 176 178 180 182 184 186 188 190 192 194 196 198 200 </DataArray>
<DataArray  type="UInt8"  Name="types"  format="ascii">3 3 3 3 3 3 3 3 3 3 3 3 3 3 3 3 3 3 3 3 3 3 3 3 3 3 3 3 3 3 3 3 3 3 3 3 3 3 3 3 3 3 3 3 3 3 3 3 3 3 3 3 3 3 3 3 3 3 3 3 3 3 3 3 3 3 3 3 3 3 3 3 3 3 3 3 3 3 3 3 3 3 3 3 3 3 3 3 3 3 3 3 3 3 3 3 3 3 3 3 </DataArray>
</Cells>
<PointData  Scalars="f_16"> 
<DataArray  type="Float64"  Name="f_16"  format="ascii">0.0000000000000000e+00  1.0471030572297499e+22  2.0931726735009164e+22  3.1371764284168287e+22  4.1780839416914315e+22  5.2148678906726106e+22  6.2465050248301125e+22  7.2719771762011224e+22  8.2902722647908376e+22  9.3003852979305544e+22  1.0301319362602089e+23  1.1292086609744607e+23  1.2271709229568292e+23  1.3239220416908527e+23  1.4193665325664626e+23  1.5134102011378284e+23  1.6059602361019348e+23  1.6969253009059397e+23  1.7862156238928016e+23  1.8737430868961304e+23  1.9594213121968326e+23  2.0431657477557768e+23  2.1248937506384712e+23  2.2045246685495788e+23  2.2819799193970273e+23  2.3571830688074508e+23  2.4300599055167841e+23  2.5005385145619794e+23  2.5685493482020021e+23  2.6340252944985830e+23  2.6969017434895186e+23  2.7571166508897299e+23  2.8146105992577603e+23  2.8693268565679116e+23  2.9212114321308045e+23  2.9702131298077620e+23  3.0162835984671093e+23  3.0593773796332014e+23  3.0994519522817500e+23  3.1364677747378317e+23  3.1703883236358264e+23  3.2011801299033676e+23  3.2288128117343457e+23  3.2532591045189262e+23  3.2744948877015140e+23  3.2924992085405933e+23  3.3072543027473883e+23  3.3187456119833261e+23  3.3269617981993284e+23  3.3318947548030339e+23  3.3335396146431267e+23  3.3318947548030312e+23  3.3269617981993244e+23  3.3187456119833207e+23  3.3072543027473822e+23  3.2924992085405859e+23  3.2744948877015053e+23  3.2532591045189175e+23  3.2288128117343363e+23  3.2011801299033575e+23  3.1703883236358150e+23  3.1364677747378176e+23  3.0994519522817338e+23  3.0593773796331846e+23  3.0162835984670902e+23  2.9702131298077416e+23  2.9212114321307827e+23  2.8693268565678885e+23  2.8146105992577358e+23  2.7571166508897034e+23  2.6969017434894894e+23  2.6340252944985518e+23  2.5685493482019686e+23  2.5005385145619455e+23  2.4300599055167519e+23  2.3571830688074179e+23  2.2819799193969954e+23  2.2045246685495482e+23  2.1248937506384406e+23  2.0431657477557469e+23  1.9594213121968041e+23  1.8737430868961025e+23  1.7862156238927757e+23  1.6969253009059162e+23  1.6059602361019123e+23  1.5134102011378083e+23  1.4193665325664451e+23  1.3239220416908372e+23  1.2271709229568149e+23  1.1292086609744496e+23  1.0301319362601989e+23  9.3003852979304655e+22  8.2902722647907721e+22  7.2719771762010645e+22  6.2465050248300621e+22  5.2148678906725804e+22  4.1780839416914038e+22  3.1371764284168061e+22  2.0931726735009114e+22  1.0471030572297474e+22  0.0000000000000000e+00  </DataArray> 
</PointData> 
</Piece>
</UnstructuredGrid>
</VTKFile>