<?xml version="1.0"?>
<VTKFile type="UnstructuredGrid"  version="0.1"  >
<UnstructuredGrid>
<Piece  NumberOfPoints="101" NumberOfCells="100">
<Points>
<DataArray  type="Float64"  NumberOfComponents="3"  format="ascii">0 0 0  3e-08 0 0  6.000000000000001e-08 0 0  9e-08 0 0  1.2e-07 0 0  1.5e-07 0 0  1.8e-07 0 0  2.1e-07 0 0  2.4e-07 0 0  2.7e-07 0 0  3e-07 0 0  3.3e-07 0 0  3.6e-07 0 0  3.9e-07 0 0  4.200000000000001e-07 0 0  4.5e-07 0 0  4.800000000000001e-07 0 0  5.1e-07 0 0  5.4e-07 0 0  5.7e-07 0 0  6e-07 0 0  6.3e-07 0 0  6.6e-07 0 0  6.9e-07 0 0  7.2e-07 0 0  7.5e-07 0 0  7.799999999999999e-07 0 0  8.100000000000001e-07 0 0  8.400000000000001e-07 0 0  8.7e-07 0 0  9.000000000000001e-07 0 0  9.3e-07 0 0  9.600000000000001e-07 0 0  9.900000000000001e-07 0 0  1.02e-06 0 0  1.05e-06 0 0  1.08e-06 0 0  1.11e-06 0 0  1.14e-06 0 0  1.17e-06 0 0  1.2e-06 0 0  1.23e-06 0 0  1.26e-06 0 0  1.29e-06 0 0  1.32e-06 0 0  1.35e-06 0 0  1.38e-06 0 0  1.41e-06 0 0  1.44e-06 0 0  1.47e-06 0 0  1.5e-06 0 0  1.53e-06 0 0  1.56e-06 0 0  1.59e-06 0 0  1.62e-06 0 0  1.65e-06 0 0  1.68e-06 0 0  1.71e-06 0 0  1.74e-06 0 0  1.77e-06 0 0  1.8e-06 0 0  1.83e-06 0 0  1.86e-06 0 0  1.89e-06 0 0  1.92e-06 0 0  1.95e-06 0 0  1.98e-06 0 0  2.01e-06 0 0  2.04e-06 0 0  2.07e-06 0 0  2.1e-06 0 0  2.13e-06 0 0  2.16e-06 0 0  2.19e-06 0 0  2.22e-06 0 0  2.25e-06 0 0  2.28e-06 0 0  2.31e-06 0 0  2.34e-06 0 0  2.37e-06 0 0  2.4e-06 0 0  2.43e-06 0 0  2.46e-06 0 0  2.49e-06 0 0  2.52e-06 0 0  2.55e-06 0 0  2.58e-06 0 0  2.61e-06 0 0  2.64e-06 0 0  2.67e-06 0 0  2.7e-06 0 0  2.73e-06 0 0  2.76e-06 0 0  2.79e-06 0 0  2.82e-06 0 0  2.85e-06 0 0  2.88e-06 0 0  2.91e-06 0 0  2.94e-06 0 0  2.97e-06 0 0  3e-06 0 0  </DataArray>
</Points>
<Cells>
<DataArray  type="UInt32"  Name="connectivity"  format="ascii">0 1  1 2  2 3  3 4  4 5  5 6  6 7  7 8  8 9  9 10  10 11  11 12  12 13  13 14  14 15  15 16  16 17  17 18  18 19  19 20  20 21  21 22  22 23  23 24  24 25  25 26  26 27  27 28  28 29  29 30  30 31  31 32  32 33  33 34  34 35  35 36  36 37  37 38  38 39  39 40  40 41  41 42  42 43  43 44  44 45  45 46  46 47  47 48  48 49  49 50  50 51  51 52  52 53  53 54  54 55  55 56  56 57  57 58  58 59  59 60  60 61  61 62  62 63  63 64  64 65  65 66  66 67  67 68  68 69  69 70  70 71  71 72  72 73  73 74  74 75  75 76  76 77  77 78  78 79  79 80  80 81  81 82  82 83  83 84  84 85  85 86  86 87  87 88  88 89  89 90  90 91  91 92  92 93  93 94  94 95  95 96  96 97  97 98  98 99  99 100  </DataArray>
<DataArray  type="UInt32"  Name="offsets"  format="ascii">2 4 6 8 10 12 14 16 18 20 22 24 26 28 30 32 34 36 38 40 42 44 46 48 50 52 54 56 58 60 62 64 66 68 70 72 74 76 78 80 82 84 86 88 90 92 94 96 98 100 102 104 106 108 110 112 114 116 118 120 122 124 126 128 130 132 134 136 138 140 142 144 146 148 150 152 154 156 158 160 162 164 166 168 170 172 174 176 178 180 182 184 186 188 190 192 194 196 198 200 </DataArray>
<DataArray  type="UInt8"  Name="types"  format="ascii">3 3 3 3 3 3 3 3 3 3 3 3 3 3 3 3 3 3 3 3 3 3 3 3 3 3 3 3 3 3 3 3 3 3 3 3 3 3 3 3 3 3 3 3 3 3 3 3 3 3 3 3 3 3 3 3 3 3 3 3 3 3 3 3 3 3 3 3 3 3 3 3 3 3 3 3 3 3 3 3 3 3 3 3 3 3 3 3 3 3 3 3 3 3 3 3 3 3 3 3 </DataArray>
</Cells>
<PointData  Scalars="f_16"> 
<DataArray  type="Float64"  Name="f_16"  format="ascii">0.0000000000000000e+00  3.5637871292162643e+21  7.1240572300021738e+21  1.0677296744816871e+22  1.4219999054473099e+22  1.7748667938753827e+22  2.1259821026766217e+22  2.4749993233627673e+22  2.8215740180092420e+22  3.1653641591743763e+22  3.5060304674397354e+22  3.8432367462384400e+22  4.1766502136410223e+22  4.5059418307714085e+22  4.8307866265288907e+22  5.1508640182956378e+22  5.4658581283132502e+22  5.7754580954161019e+22  6.0793583818138718e+22  6.3772590746204566e+22  6.6688661818317233e+22  6.9538919224600141e+22  7.2320550105390369e+22  7.5030809327189092e+22  7.7667022191773834e+22  8.0226587075799018e+22  8.2706977998279742e+22  8.5105747113425500e+22  8.7420527126363003e+22  8.9649033629364900e+22  9.1789067356278375e+22  9.3838516352928895e+22  9.5795358061357559e+22  9.7657661315834534e+22  9.9423588248679780e+22  1.0109139610400933e+23  1.0265943895761797e+23  1.0412616934130071e+23  1.0549013977001015e+23  1.0675000417034258e+23  1.0790451920894363e+23  1.0895254551952169e+23  1.0989304882725918e+23  1.1072510096951131e+23  1.1144788081178544e+23  1.1206067505809717e+23  1.1256287895490329e+23  1.1295399688791703e+23  1.1323364287121656e+23  1.1340154092816423e+23  1.1345752536376054e+23  1.1340154092816414e+23  1.1323364287121643e+23  1.1295399688791685e+23  1.1256287895490306e+23  1.1206067505809690e+23  1.1144788081178514e+23  1.1072510096951100e+23  1.0989304882725883e+23  1.0895254551952129e+23  1.0790451920894316e+23  1.0675000417034206e+23  1.0549013977000954e+23  1.0412616934130009e+23  1.0265943895761729e+23  1.0109139610400859e+23  9.9423588248678992e+22  9.7657661315833695e+22  9.5795358061356669e+22  9.3838516352927956e+22  9.1789067356277318e+22  8.9649033629363792e+22  8.7420527126361829e+22  8.5105747113424309e+22  8.2706977998278584e+22  8.0226587075797844e+22  7.7667022191772693e+22  7.5030809327187985e+22  7.2320550105389254e+22  6.9538919224599059e+22  6.6688661818316234e+22  6.3772590746203576e+22  6.0793583818137796e+22  5.7754580954160189e+22  5.4658581283131705e+22  5.1508640182955665e+22  4.8307866265288278e+22  4.5059418307713514e+22  4.1766502136409703e+22  3.8432367462383973e+22  3.5060304674396976e+22  3.1653641591743423e+22  2.8215740180092164e+22  2.4749993233627451e+22  2.1259821026766024e+22  1.7748667938753707e+22  1.4219999054472990e+22  1.0677296744816783e+22  7.1240572300021476e+21  3.5637871292162517e+21  0.0000000000000000e+00  </DataArray> 
</PointData> 
</Piece>
</UnstructuredGrid>
</VTKFile>