<?xml version="1.0"?>
<VTKFile type="UnstructuredGrid"  version="0.1"  >
<UnstructuredGrid>
<Piece  NumberOfPoints="101" NumberOfCells="100">
<Points>
<DataArray  type="Float64"  NumberOfComponents="3"  format="ascii">0 0 0  3e-08 0 0  6.000000000000001e-08 0 0  9e-08 0 0  1.2e-07 0 0  1.5e-07 0 0  1.8e-07 0 0  2.1e-07 0 0  2.4e-07 0 0  2.7e-07 0 0  3e-07 0 0  3.3e-07 0 0  3.6e-07 0 0  3.9e-07 0 0  4.200000000000001e-07 0 0  4.5e-07 0 0  4.800000000000001e-07 0 0  5.1e-07 0 0  5.4e-07 0 0  5.7e-07 0 0  6e-07 0 0  6.3e-07 0 0  6.6e-07 0 0  6.9e-07 0 0  7.2e-07 0 0  7.5e-07 0 0  7.799999999999999e-07 0 0  8.100000000000001e-07 0 0  8.400000000000001e-07 0 0  8.7e-07 0 0  9.000000000000001e-07 0 0  9.3e-07 0 0  9.600000000000001e-07 0 0  9.900000000000001e-07 0 0  1.02e-06 0 0  1.05e-06 0 0  1.08e-06 0 0  1.11e-06 0 0  1.14e-06 0 0  1.17e-06 0 0  1.2e-06 0 0  1.23e-06 0 0  1.26e-06 0 0  1.29e-06 0 0  1.32e-06 0 0  1.35e-06 0 0  1.38e-06 0 0  1.41e-06 0 0  1.44e-06 0 0  1.47e-06 0 0  1.5e-06 0 0  1.53e-06 0 0  1.56e-06 0 0  1.59e-06 0 0  1.62e-06 0 0  1.65e-06 0 0  1.68e-06 0 0  1.71e-06 0 0  1.74e-06 0 0  1.77e-06 0 0  1.8e-06 0 0  1.83e-06 0 0  1.86e-06 0 0  1.89e-06 0 0  1.92e-06 0 0  1.95e-06 0 0  1.98e-06 0 0  2.01e-06 0 0  2.04e-06 0 0  2.07e-06 0 0  2.1e-06 0 0  2.13e-06 0 0  2.16e-06 0 0  2.19e-06 0 0  2.22e-06 0 0  2.25e-06 0 0  2.28e-06 0 0  2.31e-06 0 0  2.34e-06 0 0  2.37e-06 0 0  2.4e-06 0 0  2.43e-06 0 0  2.46e-06 0 0  2.49e-06 0 0  2.52e-06 0 0  2.55e-06 0 0  2.58e-06 0 0  2.61e-06 0 0  2.64e-06 0 0  2.67e-06 0 0  2.7e-06 0 0  2.73e-06 0 0  2.76e-06 0 0  2.79e-06 0 0  2.82e-06 0 0  2.85e-06 0 0  2.88e-06 0 0  2.91e-06 0 0  2.94e-06 0 0  2.97e-06 0 0  3e-06 0 0  </DataArray>
</Points>
<Cells>
<DataArray  type="UInt32"  Name="connectivity"  format="ascii">0 1  1 2  2 3  3 4  4 5  5 6  6 7  7 8  8 9  9 10  10 11  11 12  12 13  13 14  14 15  15 16  16 17  17 18  18 19  19 20  20 21  21 22  22 23  23 24  24 25  25 26  26 27  27 28  28 29  29 30  30 31  31 32  32 33  33 34  34 35  35 36  36 37  37 38  38 39  39 40  40 41  41 42  42 43  43 44  44 45  45 46  46 47  47 48  48 49  49 50  50 51  51 52  52 53  53 54  54 55  55 56  56 57  57 58  58 59  59 60  60 61  61 62  62 63  63 64  64 65  65 66  66 67  67 68  68 69  69 70  70 71  71 72  72 73  73 74  74 75  75 76  76 77  77 78  78 79  79 80  80 81  81 82  82 83  83 84  84 85  85 86  86 87  87 88  88 89  89 90  90 91  91 92  92 93  93 94  94 95  95 96  96 97  97 98  98 99  99 100  </DataArray>
<DataArray  type="UInt32"  Name="offsets"  format="ascii">2 4 6 8 10 12 14 16 18 20 22 24 26 28 30 32 34 36 38 40 42 44 46 48 50 52 54 56 58 60 62 64 66 68 70 72 74 76 78 80 82 84 86 88 90 92 94 96 98 100 102 104 106 108 110 112 114 116 118 120 122 124 126 128 130 132 134 136 138 140 142 144 146 148 150 152 154 156 158 160 162 164 166 168 170 172 174 176 178 180 182 184 186 188 190 192 194 196 198 200 </DataArray>
<DataArray  type="UInt8"  Name="types"  format="ascii">3 3 3 3 3 3 3 3 3 3 3 3 3 3 3 3 3 3 3 3 3 3 3 3 3 3 3 3 3 3 3 3 3 3 3 3 3 3 3 3 3 3 3 3 3 3 3 3 3 3 3 3 3 3 3 3 3 3 3 3 3 3 3 3 3 3 3 3 3 3 3 3 3 3 3 3 3 3 3 3 3 3 3 3 3 3 3 3 3 3 3 3 3 3 3 3 3 3 3 3 </DataArray>
</Cells>
<PointData  Scalars="f_16"> 
<DataArray  type="Float64"  Name="f_16"  format="ascii">0.0000000000000000e+00  1.5411838730570414e+21  3.0808467836969634e+21  4.6174692705089565e+21  6.1495348726135249e+21  7.6755316262263167e+21  9.1939535567838742e+21  1.0703302165158737e+22  1.2202087906497192e+22  1.3688831660220247e+22  1.5162066189737079e+22  1.6620337590430442e+22  1.8062206724485004e+22  1.9486250641142638e+22  2.0891063980983065e+22  2.2275260362843903e+22  2.3637473752011546e+22  2.4976359808332477e+22  2.6290597212914721e+22  2.7578888972110064e+22  2.8839963697490170e+22  3.0072576860553493e+22  3.1275512020924635e+22  3.2447582026834085e+22  3.3587630186693740e+22  3.4694531410611778e+22  3.5767193320720540e+22  3.6804557329221626e+22  3.7805599683084139e+22  3.8769332474365363e+22  3.9694804615156583e+22  4.0581102776192000e+22  4.1427352288194447e+22  4.2232718005068244e+22  4.2996405128087613e+22  4.3717659990267005e+22  4.4395770800139349e+22  4.5030068344208358e+22  4.5619926647381344e+22  4.6164763590731028e+22  4.6664041485976650e+22  4.7117267606117326e+22  4.7523994671694106e+22  4.7883821292200753e+22  4.8196392362207678e+22  4.8461399411808134e+22  4.8678580911040736e+22  4.8847722527987943e+22  4.8968657340295778e+22  4.9041265999906024e+22  4.9065476850838321e+22  4.9041265999905991e+22  4.8968657340295719e+22  4.8847722527987868e+22  4.8678580911040643e+22  4.8461399411808025e+22  4.8196392362207561e+22  4.7883821292200628e+22  4.7523994671693980e+22  4.7117267606117183e+22  4.6664041485976474e+22  4.6164763590730826e+22  4.5619926647381118e+22  4.5030068344208107e+22  4.4395770800139072e+22  4.3717659990266703e+22  4.2996405128087294e+22  4.2232718005067909e+22  4.1427352288194095e+22  4.0581102776191614e+22  3.9694804615156155e+22  3.8769332474364910e+22  3.7805599683083653e+22  3.6804557329221131e+22  3.5767193320720066e+22  3.4694531410611296e+22  3.3587630186693271e+22  3.2447582026833641e+22  3.1275512020924186e+22  3.0072576860553057e+22  2.8839963697489759e+22  2.7578888972109657e+22  2.6290597212914339e+22  2.4976359808332133e+22  2.3637473752011218e+22  2.2275260362843606e+22  2.0891063980982809e+22  1.9486250641142407e+22  1.8062206724484794e+22  1.6620337590430274e+22  1.5162066189736930e+22  1.3688831660220115e+22  1.2202087906497096e+22  1.0703302165158651e+22  9.1939535567837997e+21  7.6755316262262716e+21  6.1495348726134850e+21  4.6174692705089235e+21  3.0808467836969550e+21  1.5411838730570372e+21  0.0000000000000000e+00  </DataArray> 
</PointData> 
</Piece>
</UnstructuredGrid>
</VTKFile>