<?xml version="1.0"?>
<VTKFile type="UnstructuredGrid"  version="0.1"  >
<UnstructuredGrid>
<Piece  NumberOfPoints="101" NumberOfCells="100">
<Points>
<DataArray  type="Float64"  NumberOfComponents="3"  format="ascii">0 0 0  3e-08 0 0  6.000000000000001e-08 0 0  9e-08 0 0  1.2e-07 0 0  1.5e-07 0 0  1.8e-07 0 0  2.1e-07 0 0  2.4e-07 0 0  2.7e-07 0 0  3e-07 0 0  3.3e-07 0 0  3.6e-07 0 0  3.9e-07 0 0  4.200000000000001e-07 0 0  4.5e-07 0 0  4.800000000000001e-07 0 0  5.1e-07 0 0  5.4e-07 0 0  5.7e-07 0 0  6e-07 0 0  6.3e-07 0 0  6.6e-07 0 0  6.9e-07 0 0  7.2e-07 0 0  7.5e-07 0 0  7.799999999999999e-07 0 0  8.100000000000001e-07 0 0  8.400000000000001e-07 0 0  8.7e-07 0 0  9.000000000000001e-07 0 0  9.3e-07 0 0  9.600000000000001e-07 0 0  9.900000000000001e-07 0 0  1.02e-06 0 0  1.05e-06 0 0  1.08e-06 0 0  1.11e-06 0 0  1.14e-06 0 0  1.17e-06 0 0  1.2e-06 0 0  1.23e-06 0 0  1.26e-06 0 0  1.29e-06 0 0  1.32e-06 0 0  1.35e-06 0 0  1.38e-06 0 0  1.41e-06 0 0  1.44e-06 0 0  1.47e-06 0 0  1.5e-06 0 0  1.53e-06 0 0  1.56e-06 0 0  1.59e-06 0 0  1.62e-06 0 0  1.65e-06 0 0  1.68e-06 0 0  1.71e-06 0 0  1.74e-06 0 0  1.77e-06 0 0  1.8e-06 0 0  1.83e-06 0 0  1.86e-06 0 0  1.89e-06 0 0  1.92e-06 0 0  1.95e-06 0 0  1.98e-06 0 0  2.01e-06 0 0  2.04e-06 0 0  2.07e-06 0 0  2.1e-06 0 0  2.13e-06 0 0  2.16e-06 0 0  2.19e-06 0 0  2.22e-06 0 0  2.25e-06 0 0  2.28e-06 0 0  2.31e-06 0 0  2.34e-06 0 0  2.37e-06 0 0  2.4e-06 0 0  2.43e-06 0 0  2.46e-06 0 0  2.49e-06 0 0  2.52e-06 0 0  2.55e-06 0 0  2.58e-06 0 0  2.61e-06 0 0  2.64e-06 0 0  2.67e-06 0 0  2.7e-06 0 0  2.73e-06 0 0  2.76e-06 0 0  2.79e-06 0 0  2.82e-06 0 0  2.85e-06 0 0  2.88e-06 0 0  2.91e-06 0 0  2.94e-06 0 0  2.97e-06 0 0  3e-06 0 0  </DataArray>
</Points>
<Cells>
<DataArray  type="UInt32"  Name="connectivity"  format="ascii">0 1  1 2  2 3  3 4  4 5  5 6  6 7  7 8  8 9  9 10  10 11  11 12  12 13  13 14  14 15  15 16  16 17  17 18  18 19  19 20  20 21  21 22  22 23  23 24  24 25  25 26  26 27  27 28  28 29  29 30  30 31  31 32  32 33  33 34  34 35  35 36  36 37  37 38  38 39  39 40  40 41  41 42  42 43  43 44  44 45  45 46  46 47  47 48  48 49  49 50  50 51  51 52  52 53  53 54  54 55  55 56  56 57  57 58  58 59  59 60  60 61  61 62  62 63  63 64  64 65  65 66  66 67  67 68  68 69  69 70  70 71  71 72  72 73  73 74  74 75  75 76  76 77  77 78  78 79  79 80  80 81  81 82  82 83  83 84  84 85  85 86  86 87  87 88  88 89  89 90  90 91  91 92  92 93  93 94  94 95  95 96  96 97  97 98  98 99  99 100  </DataArray>
<DataArray  type="UInt32"  Name="offsets"  format="ascii">2 4 6 8 10 12 14 16 18 20 22 24 26 28 30 32 34 36 38 40 42 44 46 48 50 52 54 56 58 60 62 64 66 68 70 72 74 76 78 80 82 84 86 88 90 92 94 96 98 100 102 104 106 108 110 112 114 116 118 120 122 124 126 128 130 132 134 136 138 140 142 144 146 148 150 152 154 156 158 160 162 164 166 168 170 172 174 176 178 180 182 184 186 188 190 192 194 196 198 200 </DataArray>
<DataArray  type="UInt8"  Name="types"  format="ascii">3 3 3 3 3 3 3 3 3 3 3 3 3 3 3 3 3 3 3 3 3 3 3 3 3 3 3 3 3 3 3 3 3 3 3 3 3 3 3 3 3 3 3 3 3 3 3 3 3 3 3 3 3 3 3 3 3 3 3 3 3 3 3 3 3 3 3 3 3 3 3 3 3 3 3 3 3 3 3 3 3 3 3 3 3 3 3 3 3 3 3 3 3 3 3 3 3 3 3 3 </DataArray>
</Cells>
<PointData  Scalars="f_16"> 
<DataArray  type="Float64"  Name="f_16"  format="ascii">0.0000000000000000e+00  1.4998151897571867e+22  2.9981494855795288e+22  4.4935234617201738e+22  5.9844606272996091e+22  7.4694888899697160e+22  8.9471420150599668e+22  1.0415961078709158e+23  1.1874495913494172e+23  1.3321306545077144e+23  1.4754964618404361e+23  1.6174054812003966e+23  1.7577176238945109e+23  1.8962943833038643e+23  2.0329989718878622e+23  2.1676964564344424e+23  2.3002538914206138e+23  2.4305404503499379e+23  2.5584275549361456e+23  2.6837890020047406e+23  2.8065010879872653e+23  2.9264427308858538e+23  3.0434955895887215e+23  3.1575441804204385e+23  3.2684759908140808e+23  3.3761815899957078e+23  3.4805547365750556e+23  3.5814924829398868e+23  3.6788952763549446e+23  3.7726670566702207e+23  3.8627153505468462e+23  3.9489513621127303e+23  4.0312900599638424e+23  4.1096502604308623e+23  4.1839547070347959e+23  4.2541301460590119e+23  4.3201073981690800e+23  4.3818214260157062e+23  4.4392113977599615e+23  4.4922207464639740e+23  4.5407972252941788e+23  4.5848929584881444e+23  4.6244644880399640e+23  4.6594728160631172e+23  4.6898834427936539e+23  4.7156664002004824e+23  4.7367962811734604e+23  4.7532522642639140e+23  4.7650181339561295e+23  4.7720822964522571e+23  4.7744377909569855e+23  4.7720822964522530e+23  4.7650181339561235e+23  4.7532522642639059e+23  4.7367962811734497e+23  4.7156664002004703e+23  4.6898834427936405e+23  4.6594728160631031e+23  4.6244644880399492e+23  4.5848929584881276e+23  4.5407972252941580e+23  4.4922207464639512e+23  4.4392113977599360e+23  4.3818214260156793e+23  4.3201073981690505e+23  4.2541301460589804e+23  4.1839547070347630e+23  4.1096502604308274e+23  4.0312900599638055e+23  3.9489513621126907e+23  3.8627153505468039e+23  3.7726670566701758e+23  3.6788952763548970e+23  3.5814924829398378e+23  3.4805547365750093e+23  3.3761815899956602e+23  3.2684759908140352e+23  3.1575441804203948e+23  3.0434955895886779e+23  2.9264427308858115e+23  2.8065010879872257e+23  2.6837890020047017e+23  2.5584275549361093e+23  2.4305404503499053e+23  2.3002538914205829e+23  2.1676964564344149e+23  2.0329989718878387e+23  1.8962943833038431e+23  1.7577176238944914e+23  1.6174054812003815e+23  1.4754964618404225e+23  1.3321306545077019e+23  1.1874495913494081e+23  1.0415961078709079e+23  8.9471420150598964e+22  7.4694888899696732e+22  5.9844606272995697e+22  4.4935234617201419e+22  2.9981494855795212e+22  1.4998151897571830e+22  0.0000000000000000e+00  </DataArray> 
</PointData> 
</Piece>
</UnstructuredGrid>
</VTKFile>