<?xml version="1.0"?>
<VTKFile type="UnstructuredGrid"  version="0.1"  >
<UnstructuredGrid>
<Piece  NumberOfPoints="101" NumberOfCells="100">
<Points>
<DataArray  type="Float64"  NumberOfComponents="3"  format="ascii">0 0 0  3e-08 0 0  6.000000000000001e-08 0 0  9e-08 0 0  1.2e-07 0 0  1.5e-07 0 0  1.8e-07 0 0  2.1e-07 0 0  2.4e-07 0 0  2.7e-07 0 0  3e-07 0 0  3.3e-07 0 0  3.6e-07 0 0  3.9e-07 0 0  4.200000000000001e-07 0 0  4.5e-07 0 0  4.800000000000001e-07 0 0  5.1e-07 0 0  5.4e-07 0 0  5.7e-07 0 0  6e-07 0 0  6.3e-07 0 0  6.6e-07 0 0  6.9e-07 0 0  7.2e-07 0 0  7.5e-07 0 0  7.799999999999999e-07 0 0  8.100000000000001e-07 0 0  8.400000000000001e-07 0 0  8.7e-07 0 0  9.000000000000001e-07 0 0  9.3e-07 0 0  9.600000000000001e-07 0 0  9.900000000000001e-07 0 0  1.02e-06 0 0  1.05e-06 0 0  1.08e-06 0 0  1.11e-06 0 0  1.14e-06 0 0  1.17e-06 0 0  1.2e-06 0 0  1.23e-06 0 0  1.26e-06 0 0  1.29e-06 0 0  1.32e-06 0 0  1.35e-06 0 0  1.38e-06 0 0  1.41e-06 0 0  1.44e-06 0 0  1.47e-06 0 0  1.5e-06 0 0  1.53e-06 0 0  1.56e-06 0 0  1.59e-06 0 0  1.62e-06 0 0  1.65e-06 0 0  1.68e-06 0 0  1.71e-06 0 0  1.74e-06 0 0  1.77e-06 0 0  1.8e-06 0 0  1.83e-06 0 0  1.86e-06 0 0  1.89e-06 0 0  1.92e-06 0 0  1.95e-06 0 0  1.98e-06 0 0  2.01e-06 0 0  2.04e-06 0 0  2.07e-06 0 0  2.1e-06 0 0  2.13e-06 0 0  2.16e-06 0 0  2.19e-06 0 0  2.22e-06 0 0  2.25e-06 0 0  2.28e-06 0 0  2.31e-06 0 0  2.34e-06 0 0  2.37e-06 0 0  2.4e-06 0 0  2.43e-06 0 0  2.46e-06 0 0  2.49e-06 0 0  2.52e-06 0 0  2.55e-06 0 0  2.58e-06 0 0  2.61e-06 0 0  2.64e-06 0 0  2.67e-06 0 0  2.7e-06 0 0  2.73e-06 0 0  2.76e-06 0 0  2.79e-06 0 0  2.82e-06 0 0  2.85e-06 0 0  2.88e-06 0 0  2.91e-06 0 0  2.94e-06 0 0  2.97e-06 0 0  3e-06 0 0  </DataArray>
</Points>
<Cells>
<DataArray  type="UInt32"  Name="connectivity"  format="ascii">0 1  1 2  2 3  3 4  4 5  5 6  6 7  7 8  8 9  9 10  10 11  11 12  12 13  13 14  14 15  15 16  16 17  17 18  18 19  19 20  20 21  21 22  22 23  23 24  24 25  25 26  26 27  27 28  28 29  29 30  30 31  31 32  32 33  33 34  34 35  35 36  36 37  37 38  38 39  39 40  40 41  41 42  42 43  43 44  44 45  45 46  46 47  47 48  48 49  49 50  50 51  51 52  52 53  53 54  54 55  55 56  56 57  57 58  58 59  59 60  60 61  61 62  62 63  63 64  64 65  65 66  66 67  67 68  68 69  69 70  70 71  71 72  72 73  73 74  74 75  75 76  76 77  77 78  78 79  79 80  80 81  81 82  82 83  83 84  84 85  85 86  86 87  87 88  88 89  89 90  90 91  91 92  92 93  93 94  94 95  95 96  96 97  97 98  98 99  99 100  </DataArray>
<DataArray  type="UInt32"  Name="offsets"  format="ascii">2 4 6 8 10 12 14 16 18 20 22 24 26 28 30 32 34 36 38 40 42 44 46 48 50 52 54 56 58 60 62 64 66 68 70 72 74 76 78 80 82 84 86 88 90 92 94 96 98 100 102 104 106 108 110 112 114 116 118 120 122 124 126 128 130 132 134 136 138 140 142 144 146 148 150 152 154 156 158 160 162 164 166 168 170 172 174 176 178 180 182 184 186 188 190 192 194 196 198 200 </DataArray>
<DataArray  type="UInt8"  Name="types"  format="ascii">3 3 3 3 3 3 3 3 3 3 3 3 3 3 3 3 3 3 3 3 3 3 3 3 3 3 3 3 3 3 3 3 3 3 3 3 3 3 3 3 3 3 3 3 3 3 3 3 3 3 3 3 3 3 3 3 3 3 3 3 3 3 3 3 3 3 3 3 3 3 3 3 3 3 3 3 3 3 3 3 3 3 3 3 3 3 3 3 3 3 3 3 3 3 3 3 3 3 3 3 </DataArray>
</Cells>
<PointData  Scalars="f_16"> 
<DataArray  type="Float64"  Name="f_16"  format="ascii">0.0000000000000000e+00  2.8047578901827383e+21  5.6067478227777078e+21  8.4032045718386298e+21  1.1191368372006402e+22  1.3968487642065795e+22  1.6731821700425378e+22  1.9478643469840747e+22  2.2206242168711867e+22  2.4911925986298473e+22  2.7593024739213471e+22  3.0246892506572623e+22  3.2870910241199962e+22  3.5462488354312023e+22  3.8019069271130025e+22  4.0538129954897987e+22  4.3017184396815859e+22  4.5453786069430352e+22  4.7845530341062381e+22  5.0190056848888192e+22  5.2485051828332367e+22  5.4728250396473943e+22  5.6917438787211917e+22  5.9050456535984580e+22  6.1125198611886610e+22  6.3139617495079520e+22  6.5091725197445664e+22  6.6979595224491523e+22  6.8801364476563932e+22  7.0555235087503344e+22  7.2239476198919398e+22  7.3852425668337722e+22  7.5392491709532553e+22  7.6858154463425930e+22  7.8247967498003705e+22  7.9560559235767791e+22  8.0794634307315937e+22  8.1948974829713490e+22  8.3022441608395314e+22  8.4013975261411782e+22  8.4922597264909446e+22  8.5747410918814622e+22  8.6487602231766791e+22  8.7142440724428610e+22  8.7711280150379653e+22  8.8193559133882757e+22  8.8588801723893086e+22  8.8896617863763668e+22  8.9116703776183536e+22  8.9248842262968812e+22  8.9292902919410628e+22  8.9248842262968728e+22  8.9116703776183436e+22  8.8896617863763517e+22  8.8588801723892884e+22  8.8193559133882539e+22  8.7711280150379401e+22  8.7142440724428342e+22  8.6487602231766539e+22  8.5747410918814337e+22  8.4922597264909111e+22  8.4013975261411396e+22  8.3022441608394878e+22  8.1948974829712987e+22  8.0794634307315383e+22  7.9560559235767221e+22  7.8247967498003102e+22  7.6858154463425276e+22  7.5392491709531890e+22  7.3852425668337001e+22  7.2239476198918593e+22  7.0555235087502505e+22  6.8801364476563034e+22  6.6979595224490608e+22  6.5091725197444783e+22  6.3139617495078631e+22  6.1125198611885737e+22  5.9050456535983750e+22  5.6917438787211070e+22  5.4728250396473112e+22  5.2485051828331587e+22  5.0190056848887420e+22  4.7845530341061660e+22  4.5453786069429706e+22  4.3017184396815247e+22  4.0538129954897433e+22  3.8019069271129547e+22  3.5462488354311587e+22  3.2870910241199572e+22  3.0246892506572304e+22  2.7593024739213186e+22  2.4911925986298222e+22  2.2206242168711678e+22  1.9478643469840583e+22  1.6731821700425238e+22  1.3968487642065709e+22  1.1191368372006326e+22  8.4032045718385669e+21  5.6067478227776921e+21  2.8047578901827305e+21  0.0000000000000000e+00  </DataArray> 
</PointData> 
</Piece>
</UnstructuredGrid>
</VTKFile>