<?xml version="1.0"?>
<VTKFile type="UnstructuredGrid"  version="0.1"  >
<UnstructuredGrid>
<Piece  NumberOfPoints="101" NumberOfCells="100">
<Points>
<DataArray  type="Float64"  NumberOfComponents="3"  format="ascii">0 0 0  3e-08 0 0  6.000000000000001e-08 0 0  9e-08 0 0  1.2e-07 0 0  1.5e-07 0 0  1.8e-07 0 0  2.1e-07 0 0  2.4e-07 0 0  2.7e-07 0 0  3e-07 0 0  3.3e-07 0 0  3.6e-07 0 0  3.9e-07 0 0  4.200000000000001e-07 0 0  4.5e-07 0 0  4.800000000000001e-07 0 0  5.1e-07 0 0  5.4e-07 0 0  5.7e-07 0 0  6e-07 0 0  6.3e-07 0 0  6.6e-07 0 0  6.9e-07 0 0  7.2e-07 0 0  7.5e-07 0 0  7.799999999999999e-07 0 0  8.100000000000001e-07 0 0  8.400000000000001e-07 0 0  8.7e-07 0 0  9.000000000000001e-07 0 0  9.3e-07 0 0  9.600000000000001e-07 0 0  9.900000000000001e-07 0 0  1.02e-06 0 0  1.05e-06 0 0  1.08e-06 0 0  1.11e-06 0 0  1.14e-06 0 0  1.17e-06 0 0  1.2e-06 0 0  1.23e-06 0 0  1.26e-06 0 0  1.29e-06 0 0  1.32e-06 0 0  1.35e-06 0 0  1.38e-06 0 0  1.41e-06 0 0  1.44e-06 0 0  1.47e-06 0 0  1.5e-06 0 0  1.53e-06 0 0  1.56e-06 0 0  1.59e-06 0 0  1.62e-06 0 0  1.65e-06 0 0  1.68e-06 0 0  1.71e-06 0 0  1.74e-06 0 0  1.77e-06 0 0  1.8e-06 0 0  1.83e-06 0 0  1.86e-06 0 0  1.89e-06 0 0  1.92e-06 0 0  1.95e-06 0 0  1.98e-06 0 0  2.01e-06 0 0  2.04e-06 0 0  2.07e-06 0 0  2.1e-06 0 0  2.13e-06 0 0  2.16e-06 0 0  2.19e-06 0 0  2.22e-06 0 0  2.25e-06 0 0  2.28e-06 0 0  2.31e-06 0 0  2.34e-06 0 0  2.37e-06 0 0  2.4e-06 0 0  2.43e-06 0 0  2.46e-06 0 0  2.49e-06 0 0  2.52e-06 0 0  2.55e-06 0 0  2.58e-06 0 0  2.61e-06 0 0  2.64e-06 0 0  2.67e-06 0 0  2.7e-06 0 0  2.73e-06 0 0  2.76e-06 0 0  2.79e-06 0 0  2.82e-06 0 0  2.85e-06 0 0  2.88e-06 0 0  2.91e-06 0 0  2.94e-06 0 0  2.97e-06 0 0  3e-06 0 0  </DataArray>
</Points>
<Cells>
<DataArray  type="UInt32"  Name="connectivity"  format="ascii">0 1  1 2  2 3  3 4  4 5  5 6  6 7  7 8  8 9  9 10  10 11  11 12  12 13  13 14  14 15  15 16  16 17  17 18  18 19  19 20  20 21  21 22  22 23  23 24  24 25  25 26  26 27  27 28  28 29  29 30  30 31  31 32  32 33  33 34  34 35  35 36  36 37  37 38  38 39  39 40  40 41  41 42  42 43  43 44  44 45  45 46  46 47  47 48  48 49  49 50  50 51  51 52  52 53  53 54  54 55  55 56  56 57  57 58  58 59  59 60  60 61  61 62  62 63  63 64  64 65  65 66  66 67  67 68  68 69  69 70  70 71  71 72  72 73  73 74  74 75  75 76  76 77  77 78  78 79  79 80  80 81  81 82  82 83  83 84  84 85  85 86  86 87  87 88  88 89  89 90  90 91  91 92  92 93  93 94  94 95  95 96  96 97  97 98  98 99  99 100  </DataArray>
<DataArray  type="UInt32"  Name="offsets"  format="ascii">2 4 6 8 10 12 14 16 18 20 22 24 26 28 30 32 34 36 38 40 42 44 46 48 50 52 54 56 58 60 62 64 66 68 70 72 74 76 78 80 82 84 86 88 90 92 94 96 98 100 102 104 106 108 110 112 114 116 118 120 122 124 126 128 130 132 134 136 138 140 142 144 146 148 150 152 154 156 158 160 162 164 166 168 170 172 174 176 178 180 182 184 186 188 190 192 194 196 198 200 </DataArray>
<DataArray  type="UInt8"  Name="types"  format="ascii">3 3 3 3 3 3 3 3 3 3 3 3 3 3 3 3 3 3 3 3 3 3 3 3 3 3 3 3 3 3 3 3 3 3 3 3 3 3 3 3 3 3 3 3 3 3 3 3 3 3 3 3 3 3 3 3 3 3 3 3 3 3 3 3 3 3 3 3 3 3 3 3 3 3 3 3 3 3 3 3 3 3 3 3 3 3 3 3 3 3 3 3 3 3 3 3 3 3 3 3 </DataArray>
</Cells>
<PointData  Scalars="f_16"> 
<DataArray  type="Float64"  Name="f_16"  format="ascii">0.0000000000000000e+00  9.2892217581944869e+21  1.8569275818751899e+22  2.7831003534617047e+22  3.7065264350938532e+22  4.6262944828779747e+22  5.5414967641986396e+22  6.4512300538304792e+22  7.3545965255882009e+22  8.2507046386323702e+22  9.1386700175539836e+22  1.0017616325367146e+23  1.0886676128546368e+23  1.1744991753253018e+23  1.2591716131904406e+23  1.3426013639248683e+23  1.4247060917119457e+23  1.5054047687055218e+23  1.5846177549981238e+23  1.6622668772164251e+23  1.7382755056664361e+23  1.8125686299523020e+23  1.8850729329941311e+23  1.9557168633718748e+23  2.0244307059239778e+23  2.0911466505312370e+23  2.1557988590181368e+23  2.2183235301058208e+23  2.2786589623527630e+23  2.3367456150212597e+23  2.3925261668098778e+23  2.4459455723941523e+23  2.4969511167199793e+23  2.5454924669963855e+23  2.5915217223366473e+23  2.6349934609990341e+23  2.6758647851808391e+23  2.7140953633217834e+23  2.7496474698753072e+23  2.7824860225087875e+23  2.8125786166962388e+23  2.8398955576696099e+23  2.8644098896974059e+23  2.8860974226619620e+23  2.9049367559093753e+23  2.9209092993487483e+23  2.9339992917801119e+23  2.9441938164330983e+23  2.9514828137011709e+23  2.9558590910589586e+23  2.9573183301529977e+23  2.9558590910589563e+23  2.9514828137011676e+23  2.9441938164330936e+23  2.9339992917801062e+23  2.9209092993487419e+23  2.9049367559093683e+23  2.8860974226619546e+23  2.8644098896973978e+23  2.8398955576696012e+23  2.8125786166962280e+23  2.7824860225087757e+23  2.7496474698752934e+23  2.7140953633217683e+23  2.6758647851808227e+23  2.6349934609990167e+23  2.5915217223366289e+23  2.5454924669963657e+23  2.4969511167199585e+23  2.4459455723941298e+23  2.3925261668098529e+23  2.3367456150212332e+23  2.2786589623527348e+23  2.2183235301057920e+23  2.1557988590181090e+23  2.0911466505312088e+23  2.0244307059239510e+23  1.9557168633718487e+23  1.8850729329941050e+23  1.8125686299522765e+23  1.7382755056664117e+23  1.6622668772164012e+23  1.5846177549981013e+23  1.5054047687055016e+23  1.4247060917119264e+23  1.3426013639248512e+23  1.2591716131904257e+23  1.1744991753252886e+23  1.0886676128546249e+23  1.0017616325367051e+23  9.1386700175538964e+22  8.2507046386322947e+22  7.3545965255881455e+22  6.4512300538304297e+22  5.5414967641985969e+22  4.6262944828779496e+22  3.7065264350938305e+22  2.7831003534616858e+22  1.8569275818751858e+22  9.2892217581944659e+21  0.0000000000000000e+00  </DataArray> 
</PointData> 
</Piece>
</UnstructuredGrid>
</VTKFile>