<?xml version="1.0"?>
<VTKFile type="UnstructuredGrid"  version="0.1"  >
<UnstructuredGrid>
<Piece  NumberOfPoints="101" NumberOfCells="100">
<Points>
<DataArray  type="Float64"  NumberOfComponents="3"  format="ascii">0 0 0  3e-08 0 0  6.000000000000001e-08 0 0  9e-08 0 0  1.2e-07 0 0  1.5e-07 0 0  1.8e-07 0 0  2.1e-07 0 0  2.4e-07 0 0  2.7e-07 0 0  3e-07 0 0  3.3e-07 0 0  3.6e-07 0 0  3.9e-07 0 0  4.200000000000001e-07 0 0  4.5e-07 0 0  4.800000000000001e-07 0 0  5.1e-07 0 0  5.4e-07 0 0  5.7e-07 0 0  6e-07 0 0  6.3e-07 0 0  6.6e-07 0 0  6.9e-07 0 0  7.2e-07 0 0  7.5e-07 0 0  7.799999999999999e-07 0 0  8.100000000000001e-07 0 0  8.400000000000001e-07 0 0  8.7e-07 0 0  9.000000000000001e-07 0 0  9.3e-07 0 0  9.600000000000001e-07 0 0  9.900000000000001e-07 0 0  1.02e-06 0 0  1.05e-06 0 0  1.08e-06 0 0  1.11e-06 0 0  1.14e-06 0 0  1.17e-06 0 0  1.2e-06 0 0  1.23e-06 0 0  1.26e-06 0 0  1.29e-06 0 0  1.32e-06 0 0  1.35e-06 0 0  1.38e-06 0 0  1.41e-06 0 0  1.44e-06 0 0  1.47e-06 0 0  1.5e-06 0 0  1.53e-06 0 0  1.56e-06 0 0  1.59e-06 0 0  1.62e-06 0 0  1.65e-06 0 0  1.68e-06 0 0  1.71e-06 0 0  1.74e-06 0 0  1.77e-06 0 0  1.8e-06 0 0  1.83e-06 0 0  1.86e-06 0 0  1.89e-06 0 0  1.92e-06 0 0  1.95e-06 0 0  1.98e-06 0 0  2.01e-06 0 0  2.04e-06 0 0  2.07e-06 0 0  2.1e-06 0 0  2.13e-06 0 0  2.16e-06 0 0  2.19e-06 0 0  2.22e-06 0 0  2.25e-06 0 0  2.28e-06 0 0  2.31e-06 0 0  2.34e-06 0 0  2.37e-06 0 0  2.4e-06 0 0  2.43e-06 0 0  2.46e-06 0 0  2.49e-06 0 0  2.52e-06 0 0  2.55e-06 0 0  2.58e-06 0 0  2.61e-06 0 0  2.64e-06 0 0  2.67e-06 0 0  2.7e-06 0 0  2.73e-06 0 0  2.76e-06 0 0  2.79e-06 0 0  2.82e-06 0 0  2.85e-06 0 0  2.88e-06 0 0  2.91e-06 0 0  2.94e-06 0 0  2.97e-06 0 0  3e-06 0 0  </DataArray>
</Points>
<Cells>
<DataArray  type="UInt32"  Name="connectivity"  format="ascii">0 1  1 2  2 3  3 4  4 5  5 6  6 7  7 8  8 9  9 10  10 11  11 12  12 13  13 14  14 15  15 16  16 17  17 18  18 19  19 20  20 21  21 22  22 23  23 24  24 25  25 26  26 27  27 28  28 29  29 30  30 31  31 32  32 33  33 34  34 35  35 36  36 37  37 38  38 39  39 40  40 41  41 42  42 43  43 44  44 45  45 46  46 47  47 48  48 49  49 50  50 51  51 52  52 53  53 54  54 55  55 56  56 57  57 58  58 59  59 60  60 61  61 62  62 63  63 64  64 65  65 66  66 67  67 68  68 69  69 70  70 71  71 72  72 73  73 74  74 75  75 76  76 77  77 78  78 79  79 80  80 81  81 82  82 83  83 84  84 85  85 86  86 87  87 88  88 89  89 90  90 91  91 92  92 93  93 94  94 95  95 96  96 97  97 98  98 99  99 100  </DataArray>
<DataArray  type="UInt32"  Name="offsets"  format="ascii">2 4 6 8 10 12 14 16 18 20 22 24 26 28 30 32 34 36 38 40 42 44 46 48 50 52 54 56 58 60 62 64 66 68 70 72 74 76 78 80 82 84 86 88 90 92 94 96 98 100 102 104 106 108 110 112 114 116 118 120 122 124 126 128 130 132 134 136 138 140 142 144 146 148 150 152 154 156 158 160 162 164 166 168 170 172 174 176 178 180 182 184 186 188 190 192 194 196 198 200 </DataArray>
<DataArray  type="UInt8"  Name="types"  format="ascii">3 3 3 3 3 3 3 3 3 3 3 3 3 3 3 3 3 3 3 3 3 3 3 3 3 3 3 3 3 3 3 3 3 3 3 3 3 3 3 3 3 3 3 3 3 3 3 3 3 3 3 3 3 3 3 3 3 3 3 3 3 3 3 3 3 3 3 3 3 3 3 3 3 3 3 3 3 3 3 3 3 3 3 3 3 3 3 3 3 3 3 3 3 3 3 3 3 3 3 3 </DataArray>
</Cells>
<PointData  Scalars="f_16"> 
<DataArray  type="Float64"  Name="f_16"  format="ascii">0.0000000000000000e+00  3.6623196699726689e+20  7.3210250725882842e+20  1.0972505507335315e+21  1.4613157403873242e+21  1.8239387878321404e+21  2.1847618279001636e+21  2.5434287718135392e+21  2.8995856586010096e+21  3.2528810044146576e+21  3.6029661494020276e+21  3.9494956017913110e+21  4.2921273788500054e+21  4.6305233443805887e+21  4.9643495424201243e+21  5.2932765268144701e+21  5.6169796863418664e+21  5.9351395650650128e+21  6.2474421775955174e+21  6.5535793189595665e+21  6.8532488687590163e+21  7.1461550893277590e+21  7.4320089175890917e+21  7.7105282503260682e+21  7.9814382225833266e+21  8.2444714789256057e+21  8.4993684372852834e+21  8.7458775451385473e+21  8.9837555277573453e+21  9.2127676282921906e+21  9.4326878394488224e+21  9.6432991265301180e+21  9.8443936416231420e+21  1.0035772928719933e+22  1.0217248119569628e+22  1.0388640120068620e+22  1.0549779787004829e+22  1.0700508094981613e+22  1.0840676293356651e+22  1.0970146053040856e+22  1.1088789603012498e+22  1.1196489856411761e+22  1.1293140526091349e+22  1.1378646229509072e+22  1.1452922582858881e+22  1.1515896284347512e+22  1.1567505186534501e+22  1.1607698357664212e+22  1.1636436131929320e+22  1.1653690148616178e+22  1.1659443380093417e+22  1.1653690148616168e+22  1.1636436131929305e+22  1.1607698357664191e+22  1.1567505186534476e+22  1.1515896284347481e+22  1.1452922582858847e+22  1.1378646229509036e+22  1.1293140526091314e+22  1.1196489856411719e+22  1.1088789603012449e+22  1.0970146053040804e+22  1.0840676293356590e+22  1.0700508094981550e+22  1.0549779787004760e+22  1.0388640120068546e+22  1.0217248119569548e+22  1.0035772928719850e+22  9.8443936416230560e+21  9.6432991265300236e+21  9.4326878394487207e+21  9.2127676282920837e+21  8.9837555277572310e+21  8.7458775451384299e+21  8.4993684372851723e+21  8.2444714789254935e+21  7.9814382225832154e+21  7.7105282503259634e+21  7.4320089175889879e+21  7.1461550893276584e+21  6.8532488687589209e+21  6.5535793189594721e+21  6.2474421775954294e+21  5.9351395650649331e+21  5.6169796863417899e+21  5.2932765268144019e+21  4.9643495424200656e+21  4.6305233443805363e+21  4.2921273788499577e+21  3.9494956017912733e+21  3.6029661494019941e+21  3.2528810044146272e+21  2.8995856586009881e+21  2.5434287718135198e+21  2.1847618279001468e+21  1.8239387878321307e+21  1.4613157403873153e+21  1.0972505507335239e+21  7.3210250725882672e+20  3.6623196699726610e+20  0.0000000000000000e+00  </DataArray> 
</PointData> 
</Piece>
</UnstructuredGrid>
</VTKFile>