<?xml version="1.0"?>
<VTKFile type="UnstructuredGrid"  version="0.1"  >
<UnstructuredGrid>
<Piece  NumberOfPoints="101" NumberOfCells="100">
<Points>
<DataArray  type="Float64"  NumberOfComponents="3"  format="ascii">0 0 0  3e-08 0 0  6.000000000000001e-08 0 0  9e-08 0 0  1.2e-07 0 0  1.5e-07 0 0  1.8e-07 0 0  2.1e-07 0 0  2.4e-07 0 0  2.7e-07 0 0  3e-07 0 0  3.3e-07 0 0  3.6e-07 0 0  3.9e-07 0 0  4.200000000000001e-07 0 0  4.5e-07 0 0  4.800000000000001e-07 0 0  5.1e-07 0 0  5.4e-07 0 0  5.7e-07 0 0  6e-07 0 0  6.3e-07 0 0  6.6e-07 0 0  6.9e-07 0 0  7.2e-07 0 0  7.5e-07 0 0  7.799999999999999e-07 0 0  8.100000000000001e-07 0 0  8.400000000000001e-07 0 0  8.7e-07 0 0  9.000000000000001e-07 0 0  9.3e-07 0 0  9.600000000000001e-07 0 0  9.900000000000001e-07 0 0  1.02e-06 0 0  1.05e-06 0 0  1.08e-06 0 0  1.11e-06 0 0  1.14e-06 0 0  1.17e-06 0 0  1.2e-06 0 0  1.23e-06 0 0  1.26e-06 0 0  1.29e-06 0 0  1.32e-06 0 0  1.35e-06 0 0  1.38e-06 0 0  1.41e-06 0 0  1.44e-06 0 0  1.47e-06 0 0  1.5e-06 0 0  1.53e-06 0 0  1.56e-06 0 0  1.59e-06 0 0  1.62e-06 0 0  1.65e-06 0 0  1.68e-06 0 0  1.71e-06 0 0  1.74e-06 0 0  1.77e-06 0 0  1.8e-06 0 0  1.83e-06 0 0  1.86e-06 0 0  1.89e-06 0 0  1.92e-06 0 0  1.95e-06 0 0  1.98e-06 0 0  2.01e-06 0 0  2.04e-06 0 0  2.07e-06 0 0  2.1e-06 0 0  2.13e-06 0 0  2.16e-06 0 0  2.19e-06 0 0  2.22e-06 0 0  2.25e-06 0 0  2.28e-06 0 0  2.31e-06 0 0  2.34e-06 0 0  2.37e-06 0 0  2.4e-06 0 0  2.43e-06 0 0  2.46e-06 0 0  2.49e-06 0 0  2.52e-06 0 0  2.55e-06 0 0  2.58e-06 0 0  2.61e-06 0 0  2.64e-06 0 0  2.67e-06 0 0  2.7e-06 0 0  2.73e-06 0 0  2.76e-06 0 0  2.79e-06 0 0  2.82e-06 0 0  2.85e-06 0 0  2.88e-06 0 0  2.91e-06 0 0  2.94e-06 0 0  2.97e-06 0 0  3e-06 0 0  </DataArray>
</Points>
<Cells>
<DataArray  type="UInt32"  Name="connectivity"  format="ascii">0 1  1 2  2 3  3 4  4 5  5 6  6 7  7 8  8 9  9 10  10 11  11 12  12 13  13 14  14 15  15 16  16 17  17 18  18 19  19 20  20 21  21 22  22 23  23 24  24 25  25 26  26 27  27 28  28 29  29 30  30 31  31 32  32 33  33 34  34 35  35 36  36 37  37 38  38 39  39 40  40 41  41 42  42 43  43 44  44 45  45 46  46 47  47 48  48 49  49 50  50 51  51 52  52 53  53 54  54 55  55 56  56 57  57 58  58 59  59 60  60 61  61 62  62 63  63 64  64 65  65 66  66 67  67 68  68 69  69 70  70 71  71 72  72 73  73 74  74 75  75 76  76 77  77 78  78 79  79 80  80 81  81 82  82 83  83 84  84 85  85 86  86 87  87 88  88 89  89 90  90 91  91 92  92 93  93 94  94 95  95 96  96 97  97 98  98 99  99 100  </DataArray>
<DataArray  type="UInt32"  Name="offsets"  format="ascii">2 4 6 8 10 12 14 16 18 20 22 24 26 28 30 32 34 36 38 40 42 44 46 48 50 52 54 56 58 60 62 64 66 68 70 72 74 76 78 80 82 84 86 88 90 92 94 96 98 100 102 104 106 108 110 112 114 116 118 120 122 124 126 128 130 132 134 136 138 140 142 144 146 148 150 152 154 156 158 160 162 164 166 168 170 172 174 176 178 180 182 184 186 188 190 192 194 196 198 200 </DataArray>
<DataArray  type="UInt8"  Name="types"  format="ascii">3 3 3 3 3 3 3 3 3 3 3 3 3 3 3 3 3 3 3 3 3 3 3 3 3 3 3 3 3 3 3 3 3 3 3 3 3 3 3 3 3 3 3 3 3 3 3 3 3 3 3 3 3 3 3 3 3 3 3 3 3 3 3 3 3 3 3 3 3 3 3 3 3 3 3 3 3 3 3 3 3 3 3 3 3 3 3 3 3 3 3 3 3 3 3 3 3 3 3 3 </DataArray>
</Cells>
<PointData  Scalars="f_16"> 
<DataArray  type="Float64"  Name="f_16"  format="ascii">0.0000000000000000e+00  3.2489876886610130e+20  6.4947690187283536e+20  9.7341407958971738e+20  1.2963906151317499e+21  1.6180877696517826e+21  1.9381880668972725e+21  2.2563756065210150e+21  2.5723363758366492e+21  2.8857585597112653e+21  3.1963328482892977e+21  3.5037527422440099e+21  3.8077148552553206e+21  4.1079192134154778e+21  4.4040695512670903e+21  4.6958736041813601e+21  4.9830433967879928e+21  5.2652955271721124e+21  5.5423514465577426e+21  5.8139377342018172e+21  6.0797863672274401e+21  6.3396349851301105e+21  6.5932271486958630e+21  6.8403125930758096e+21  7.0806474747673366e+21  7.3139946122581964e+21  7.5401237200960236e+21  7.7588116361522855e+21  7.9698425418563411e+21  8.1730081751823318e+21  8.3681080361786477e+21  8.5549495848371801e+21  8.7333484311070607e+21  8.9031285168653709e+21  9.0641222896652701e+21  9.2161708680900174e+21  9.3591241985497519e+21  9.4928412033662751e+21  9.6171899199996853e+21  9.7320476312794646e+21  9.8373009865115236e+21  9.9328461133416361e+21  1.0018588720264930e+22  1.0094444189680199e+22  1.0160337661397272e+22  1.0216204106514978e+22  1.0261988391596824e+22  1.0297645333081041e+22  1.0323139741871298e+22  1.0338446458064097e+22  1.0343550375778553e+22  1.0338446458064086e+22  1.0323139741871285e+22  1.0297645333081024e+22  1.0261988391596803e+22  1.0216204106514953e+22  1.0160337661397242e+22  1.0094444189680168e+22  1.0018588720264896e+22  9.9328461133416004e+21  9.8373009865114774e+21  9.7320476312794143e+21  9.6171899199996287e+21  9.4928412033662142e+21  9.3591241985496868e+21  9.2161708680899503e+21  9.0641222896651998e+21  8.9031285168652964e+21  8.7333484311069820e+21  8.5549495848370952e+21  8.3681080361785544e+21  8.1730081751822332e+21  7.9698425418562362e+21  7.7588116361521775e+21  7.5401237200959208e+21  7.3139946122580926e+21  7.0806474747672359e+21  6.8403125930757131e+21  6.5932271486957666e+21  6.3396349851300172e+21  6.0797863672273521e+21  5.8139377342017312e+21  5.5423514465576608e+21  5.2652955271720390e+21  4.9830433967879236e+21  4.6958736041812982e+21  4.4040695512670378e+21  4.1079192134154306e+21  3.8077148552552781e+21  3.5037527422439758e+21  3.1963328482892673e+21  2.8857585597112375e+21  2.5723363758366282e+21  2.2563756065209972e+21  1.9381880668972570e+21  1.6180877696517734e+21  1.2963906151317417e+21  9.7341407958971043e+20  6.4947690187283392e+20  3.2489876886610051e+20  0.0000000000000000e+00  </DataArray> 
</PointData> 
</Piece>
</UnstructuredGrid>
</VTKFile>