<?xml version="1.0"?>
<VTKFile type="UnstructuredGrid"  version="0.1"  >
<UnstructuredGrid>
<Piece  NumberOfPoints="101" NumberOfCells="100">
<Points>
<DataArray  type="Float64"  NumberOfComponents="3"  format="ascii">0 0 0  3e-08 0 0  6.000000000000001e-08 0 0  9e-08 0 0  1.2e-07 0 0  1.5e-07 0 0  1.8e-07 0 0  2.1e-07 0 0  2.4e-07 0 0  2.7e-07 0 0  3e-07 0 0  3.3e-07 0 0  3.6e-07 0 0  3.9e-07 0 0  4.200000000000001e-07 0 0  4.5e-07 0 0  4.800000000000001e-07 0 0  5.1e-07 0 0  5.4e-07 0 0  5.7e-07 0 0  6e-07 0 0  6.3e-07 0 0  6.6e-07 0 0  6.9e-07 0 0  7.2e-07 0 0  7.5e-07 0 0  7.799999999999999e-07 0 0  8.100000000000001e-07 0 0  8.400000000000001e-07 0 0  8.7e-07 0 0  9.000000000000001e-07 0 0  9.3e-07 0 0  9.600000000000001e-07 0 0  9.900000000000001e-07 0 0  1.02e-06 0 0  1.05e-06 0 0  1.08e-06 0 0  1.11e-06 0 0  1.14e-06 0 0  1.17e-06 0 0  1.2e-06 0 0  1.23e-06 0 0  1.26e-06 0 0  1.29e-06 0 0  1.32e-06 0 0  1.35e-06 0 0  1.38e-06 0 0  1.41e-06 0 0  1.44e-06 0 0  1.47e-06 0 0  1.5e-06 0 0  1.53e-06 0 0  1.56e-06 0 0  1.59e-06 0 0  1.62e-06 0 0  1.65e-06 0 0  1.68e-06 0 0  1.71e-06 0 0  1.74e-06 0 0  1.77e-06 0 0  1.8e-06 0 0  1.83e-06 0 0  1.86e-06 0 0  1.89e-06 0 0  1.92e-06 0 0  1.95e-06 0 0  1.98e-06 0 0  2.01e-06 0 0  2.04e-06 0 0  2.07e-06 0 0  2.1e-06 0 0  2.13e-06 0 0  2.16e-06 0 0  2.19e-06 0 0  2.22e-06 0 0  2.25e-06 0 0  2.28e-06 0 0  2.31e-06 0 0  2.34e-06 0 0  2.37e-06 0 0  2.4e-06 0 0  2.43e-06 0 0  2.46e-06 0 0  2.49e-06 0 0  2.52e-06 0 0  2.55e-06 0 0  2.58e-06 0 0  2.61e-06 0 0  2.64e-06 0 0  2.67e-06 0 0  2.7e-06 0 0  2.73e-06 0 0  2.76e-06 0 0  2.79e-06 0 0  2.82e-06 0 0  2.85e-06 0 0  2.88e-06 0 0  2.91e-06 0 0  2.94e-06 0 0  2.97e-06 0 0  3e-06 0 0  </DataArray>
</Points>
<Cells>
<DataArray  type="UInt32"  Name="connectivity"  format="ascii">0 1  1 2  2 3  3 4  4 5  5 6  6 7  7 8  8 9  9 10  10 11  11 12  12 13  13 14  14 15  15 16  16 17  17 18  18 19  19 20  20 21  21 22  22 23  23 24  24 25  25 26  26 27  27 28  28 29  29 30  30 31  31 32  32 33  33 34  34 35  35 36  36 37  37 38  38 39  39 40  40 41  41 42  42 43  43 44  44 45  45 46  46 47  47 48  48 49  49 50  50 51  51 52  52 53  53 54  54 55  55 56  56 57  57 58  58 59  59 60  60 61  61 62  62 63  63 64  64 65  65 66  66 67  67 68  68 69  69 70  70 71  71 72  72 73  73 74  74 75  75 76  76 77  77 78  78 79  79 80  80 81  81 82  82 83  83 84  84 85  85 86  86 87  87 88  88 89  89 90  90 91  91 92  92 93  93 94  94 95  95 96  96 97  97 98  98 99  99 100  </DataArray>
<DataArray  type="UInt32"  Name="offsets"  format="ascii">2 4 6 8 10 12 14 16 18 20 22 24 26 28 30 32 34 36 38 40 42 44 46 48 50 52 54 56 58 60 62 64 66 68 70 72 74 76 78 80 82 84 86 88 90 92 94 96 98 100 102 104 106 108 110 112 114 116 118 120 122 124 126 128 130 132 134 136 138 140 142 144 146 148 150 152 154 156 158 160 162 164 166 168 170 172 174 176 178 180 182 184 186 188 190 192 194 196 198 200 </DataArray>
<DataArray  type="UInt8"  Name="types"  format="ascii">3 3 3 3 3 3 3 3 3 3 3 3 3 3 3 3 3 3 3 3 3 3 3 3 3 3 3 3 3 3 3 3 3 3 3 3 3 3 3 3 3 3 3 3 3 3 3 3 3 3 3 3 3 3 3 3 3 3 3 3 3 3 3 3 3 3 3 3 3 3 3 3 3 3 3 3 3 3 3 3 3 3 3 3 3 3 3 3 3 3 3 3 3 3 3 3 3 3 3 3 </DataArray>
</Cells>
<PointData  Scalars="f_16"> 
<DataArray  type="Float64"  Name="f_16"  format="ascii">0.0000000000000000e+00  4.5006943468096328e+22  8.9961739709267141e+22  1.3481236926504302e+23  1.7950706717215610e+23  2.2399444762480553e+23  2.6822362558663290e+23  3.1214433441988932e+23  3.5570703866672008e+23  3.9886304119660873e+23  4.4156458402224627e+23  4.8376494218087891e+23  5.2541851017712420e+23  5.6648088058410871e+23  6.0690891450056914e+23  6.4666080366053510e+23  6.8569612408788734e+23  7.2397588127922369e+23  7.6146254698409338e+23  7.9812008773100724e+23  8.3391398532015797e+23  8.6881124956913596e+23  9.0278042365589183e+23  9.3579158245375303e+23  9.6781632429650252e+23  9.9882775664755749e+23  1.0288004761764067e+24  1.0577105437679958e+24  1.0855354550070610e+24  1.1122541066899416e+24  1.1378467599215233e+24  1.1622950003551988e+24  1.1855816961294560e+24  1.2076909540464052e+24  1.2286080745256489e+24  1.2483195058517780e+24  1.2668127982158749e+24  1.2840765580310434e+24  1.3001004029795292e+24  1.3148749182247589e+24  1.3283916141958739e+24  1.3406428863253307e+24  1.3516219770921146e+24  1.3613229406942508e+24  1.3697406106447733e+24  1.3768705705552631e+24  1.3827091283406425e+24  1.3872532940481577e+24  1.3905007614825405e+24  1.3924498937682166e+24  1.3930997129582267e+24  1.3924498937682158e+24  1.3905007614825386e+24  1.3872532940481559e+24  1.3827091283406400e+24  1.3768705705552604e+24  1.3697406106447701e+24  1.3613229406942476e+24  1.3516219770921108e+24  1.3406428863253269e+24  1.3283916141958696e+24  1.3148749182247538e+24  1.3001004029795233e+24  1.2840765580310372e+24  1.2668127982158682e+24  1.2483195058517707e+24  1.2286080745256413e+24  1.2076909540463973e+24  1.1855816961294477e+24  1.1622950003551897e+24  1.1378467599215129e+24  1.1122541066899304e+24  1.0855354550070491e+24  1.0577105437679837e+24  1.0288004761763953e+24  9.9882775664754594e+23  9.6781632429649125e+23  9.3579158245374230e+23  9.0278042365588109e+23  8.6881124956912549e+23  8.3391398532014830e+23  7.9812008773099771e+23  7.6146254698408453e+23  7.2397588127921578e+23  6.8569612408787983e+23  6.4666080366052839e+23  6.0690891450056350e+23  5.6648088058410382e+23  5.2541851017711984e+23  4.8376494218087562e+23  4.4156458402224332e+23  3.9886304119660618e+23  3.5570703866671840e+23  3.1214433441988791e+23  2.6822362558663169e+23  2.2399444762480503e+23  1.7950706717215556e+23  1.3481236926504253e+23  8.9961739709267225e+22  4.5006943468096370e+22  0.0000000000000000e+00  </DataArray> 
</PointData> 
</Piece>
</UnstructuredGrid>
</VTKFile>