<?xml version="1.0"?>
<VTKFile type="UnstructuredGrid"  version="0.1"  >
<UnstructuredGrid>
<Piece  NumberOfPoints="101" NumberOfCells="100">
<Points>
<DataArray  type="Float64"  NumberOfComponents="3"  format="ascii">0 0 0  3e-08 0 0  6.000000000000001e-08 0 0  9e-08 0 0  1.2e-07 0 0  1.5e-07 0 0  1.8e-07 0 0  2.1e-07 0 0  2.4e-07 0 0  2.7e-07 0 0  3e-07 0 0  3.3e-07 0 0  3.6e-07 0 0  3.9e-07 0 0  4.200000000000001e-07 0 0  4.5e-07 0 0  4.800000000000001e-07 0 0  5.1e-07 0 0  5.4e-07 0 0  5.7e-07 0 0  6e-07 0 0  6.3e-07 0 0  6.6e-07 0 0  6.9e-07 0 0  7.2e-07 0 0  7.5e-07 0 0  7.799999999999999e-07 0 0  8.100000000000001e-07 0 0  8.400000000000001e-07 0 0  8.7e-07 0 0  9.000000000000001e-07 0 0  9.3e-07 0 0  9.600000000000001e-07 0 0  9.900000000000001e-07 0 0  1.02e-06 0 0  1.05e-06 0 0  1.08e-06 0 0  1.11e-06 0 0  1.14e-06 0 0  1.17e-06 0 0  1.2e-06 0 0  1.23e-06 0 0  1.26e-06 0 0  1.29e-06 0 0  1.32e-06 0 0  1.35e-06 0 0  1.38e-06 0 0  1.41e-06 0 0  1.44e-06 0 0  1.47e-06 0 0  1.5e-06 0 0  1.53e-06 0 0  1.56e-06 0 0  1.59e-06 0 0  1.62e-06 0 0  1.65e-06 0 0  1.68e-06 0 0  1.71e-06 0 0  1.74e-06 0 0  1.77e-06 0 0  1.8e-06 0 0  1.83e-06 0 0  1.86e-06 0 0  1.89e-06 0 0  1.92e-06 0 0  1.95e-06 0 0  1.98e-06 0 0  2.01e-06 0 0  2.04e-06 0 0  2.07e-06 0 0  2.1e-06 0 0  2.13e-06 0 0  2.16e-06 0 0  2.19e-06 0 0  2.22e-06 0 0  2.25e-06 0 0  2.28e-06 0 0  2.31e-06 0 0  2.34e-06 0 0  2.37e-06 0 0  2.4e-06 0 0  2.43e-06 0 0  2.46e-06 0 0  2.49e-06 0 0  2.52e-06 0 0  2.55e-06 0 0  2.58e-06 0 0  2.61e-06 0 0  2.64e-06 0 0  2.67e-06 0 0  2.7e-06 0 0  2.73e-06 0 0  2.76e-06 0 0  2.79e-06 0 0  2.82e-06 0 0  2.85e-06 0 0  2.88e-06 0 0  2.91e-06 0 0  2.94e-06 0 0  2.97e-06 0 0  3e-06 0 0  </DataArray>
</Points>
<Cells>
<DataArray  type="UInt32"  Name="connectivity"  format="ascii">0 1  1 2  2 3  3 4  4 5  5 6  6 7  7 8  8 9  9 10  10 11  11 12  12 13  13 14  14 15  15 16  16 17  17 18  18 19  19 20  20 21  21 22  22 23  23 24  24 25  25 26  26 27  27 28  28 29  29 30  30 31  31 32  32 33  33 34  34 35  35 36  36 37  37 38  38 39  39 40  40 41  41 42  42 43  43 44  44 45  45 46  46 47  47 48  48 49  49 50  50 51  51 52  52 53  53 54  54 55  55 56  56 57  57 58  58 59  59 60  60 61  61 62  62 63  63 64  64 65  65 66  66 67  67 68  68 69  69 70  70 71  71 72  72 73  73 74  74 75  75 76  76 77  77 78  78 79  79 80  80 81  81 82  82 83  83 84  84 85  85 86  86 87  87 88  88 89  89 90  90 91  91 92  92 93  93 94  94 95  95 96  96 97  97 98  98 99  99 100  </DataArray>
<DataArray  type="UInt32"  Name="offsets"  format="ascii">2 4 6 8 10 12 14 16 18 20 22 24 26 28 30 32 34 36 38 40 42 44 46 48 50 52 54 56 58 60 62 64 66 68 70 72 74 76 78 80 82 84 86 88 90 92 94 96 98 100 102 104 106 108 110 112 114 116 118 120 122 124 126 128 130 132 134 136 138 140 142 144 146 148 150 152 154 156 158 160 162 164 166 168 170 172 174 176 178 180 182 184 186 188 190 192 194 196 198 200 </DataArray>
<DataArray  type="UInt8"  Name="types"  format="ascii">3 3 3 3 3 3 3 3 3 3 3 3 3 3 3 3 3 3 3 3 3 3 3 3 3 3 3 3 3 3 3 3 3 3 3 3 3 3 3 3 3 3 3 3 3 3 3 3 3 3 3 3 3 3 3 3 3 3 3 3 3 3 3 3 3 3 3 3 3 3 3 3 3 3 3 3 3 3 3 3 3 3 3 3 3 3 3 3 3 3 3 3 3 3 3 3 3 3 3 3 </DataArray>
</Cells>
<PointData  Scalars="f_16"> 
<DataArray  type="Float64"  Name="f_16"  format="ascii">0.0000000000000000e+00  3.1615755575212706e+21  6.3200310212983815e+21  9.4722493767462924e+21  1.2615119764559420e+22  1.5745540550757389e+22  1.8860422387626431e+22  2.1956691262535583e+22  2.5031291531618895e+22  2.8081188935329705e+22  3.1103373592890974e+22  3.4094862972686556e+22  3.7052704835661812e+22  3.9973980148828991e+22  4.2855805966001883e+22  4.5695338272916907e+22  4.8489774793932822e+22  5.1236357757539052e+22  5.3932376617943709e+22  5.6575170730054969e+22  5.9162131975216319e+22  6.1690707335104315e+22  6.4158401411248476e+22  6.6562778887687128e+22  6.8901466934328884e+22  7.1172157548647640e+22  7.3372609833400493e+22  7.5500652208120622e+22  7.7554184552202449e+22  7.9531180277464595e+22  8.1429688328144936e+22  8.3247835106354097e+22  8.4983826321087360e+22  8.6635948758969931e+22  8.8202571974988586e+22  8.9682149901540738e+22  9.1073222374213160e+22  9.2374416572784772e+22  9.3584448376031205e+22  9.4702123628994297e+22  9.5726339321465722e+22  9.6656084676522170e+22  9.7490442148037192e+22  9.8228588326185968e+22  9.8869794750049058e+22  9.9413428626513170e+22  9.9858953454759744e+22  1.0020592955572481e+23  1.0045401450600782e+23  1.0060296347580108e+23  1.0065262947050650e+23  1.0060296347580102e+23  1.0045401450600770e+23  1.0020592955572466e+23  9.9858953454759543e+22  9.9413428626512952e+22  9.8869794750048823e+22  9.8228588326185700e+22  9.7490442148036890e+22  9.6656084676521851e+22  9.5726339321465353e+22  9.4702123628993844e+22  9.3584448376030701e+22  9.2374416572784235e+22  9.1073222374212556e+22  8.9682149901540117e+22  8.8202571974987915e+22  8.6635948758969193e+22  8.4983826321086588e+22  8.3247835106353258e+22  8.1429688328144013e+22  7.9531180277463622e+22  7.7554184552201408e+22  7.5500652208119565e+22  7.3372609833399470e+22  7.1172157548646592e+22  6.8901466934327852e+22  6.6562778887686155e+22  6.4158401411247512e+22  6.1690707335103375e+22  5.9162131975215438e+22  5.6575170730054096e+22  5.3932376617942895e+22  5.1236357757538331e+22  4.8489774793932126e+22  4.5695338272916278e+22  4.2855805966001329e+22  3.9973980148828488e+22  3.7052704835661363e+22  3.4094862972686191e+22  3.1103373592890647e+22  2.8081188935329412e+22  2.5031291531618681e+22  2.1956691262535394e+22  1.8860422387626269e+22  1.5745540550757290e+22  1.2615119764559334e+22  9.4722493767462190e+21  6.3200310212983626e+21  3.1615755575212612e+21  0.0000000000000000e+00  </DataArray> 
</PointData> 
</Piece>
</UnstructuredGrid>
</VTKFile>