<?xml version="1.0"?>
<VTKFile type="UnstructuredGrid"  version="0.1"  >
<UnstructuredGrid>
<Piece  NumberOfPoints="101" NumberOfCells="100">
<Points>
<DataArray  type="Float64"  NumberOfComponents="3"  format="ascii">0 0 0  3e-08 0 0  6.000000000000001e-08 0 0  9e-08 0 0  1.2e-07 0 0  1.5e-07 0 0  1.8e-07 0 0  2.1e-07 0 0  2.4e-07 0 0  2.7e-07 0 0  3e-07 0 0  3.3e-07 0 0  3.6e-07 0 0  3.9e-07 0 0  4.200000000000001e-07 0 0  4.5e-07 0 0  4.800000000000001e-07 0 0  5.1e-07 0 0  5.4e-07 0 0  5.7e-07 0 0  6e-07 0 0  6.3e-07 0 0  6.6e-07 0 0  6.9e-07 0 0  7.2e-07 0 0  7.5e-07 0 0  7.799999999999999e-07 0 0  8.100000000000001e-07 0 0  8.400000000000001e-07 0 0  8.7e-07 0 0  9.000000000000001e-07 0 0  9.3e-07 0 0  9.600000000000001e-07 0 0  9.900000000000001e-07 0 0  1.02e-06 0 0  1.05e-06 0 0  1.08e-06 0 0  1.11e-06 0 0  1.14e-06 0 0  1.17e-06 0 0  1.2e-06 0 0  1.23e-06 0 0  1.26e-06 0 0  1.29e-06 0 0  1.32e-06 0 0  1.35e-06 0 0  1.38e-06 0 0  1.41e-06 0 0  1.44e-06 0 0  1.47e-06 0 0  1.5e-06 0 0  1.53e-06 0 0  1.56e-06 0 0  1.59e-06 0 0  1.62e-06 0 0  1.65e-06 0 0  1.68e-06 0 0  1.71e-06 0 0  1.74e-06 0 0  1.77e-06 0 0  1.8e-06 0 0  1.83e-06 0 0  1.86e-06 0 0  1.89e-06 0 0  1.92e-06 0 0  1.95e-06 0 0  1.98e-06 0 0  2.01e-06 0 0  2.04e-06 0 0  2.07e-06 0 0  2.1e-06 0 0  2.13e-06 0 0  2.16e-06 0 0  2.19e-06 0 0  2.22e-06 0 0  2.25e-06 0 0  2.28e-06 0 0  2.31e-06 0 0  2.34e-06 0 0  2.37e-06 0 0  2.4e-06 0 0  2.43e-06 0 0  2.46e-06 0 0  2.49e-06 0 0  2.52e-06 0 0  2.55e-06 0 0  2.58e-06 0 0  2.61e-06 0 0  2.64e-06 0 0  2.67e-06 0 0  2.7e-06 0 0  2.73e-06 0 0  2.76e-06 0 0  2.79e-06 0 0  2.82e-06 0 0  2.85e-06 0 0  2.88e-06 0 0  2.91e-06 0 0  2.94e-06 0 0  2.97e-06 0 0  3e-06 0 0  </DataArray>
</Points>
<Cells>
<DataArray  type="UInt32"  Name="connectivity"  format="ascii">0 1  1 2  2 3  3 4  4 5  5 6  6 7  7 8  8 9  9 10  10 11  11 12  12 13  13 14  14 15  15 16  16 17  17 18  18 19  19 20  20 21  21 22  22 23  23 24  24 25  25 26  26 27  27 28  28 29  29 30  30 31  31 32  32 33  33 34  34 35  35 36  36 37  37 38  38 39  39 40  40 41  41 42  42 43  43 44  44 45  45 46  46 47  47 48  48 49  49 50  50 51  51 52  52 53  53 54  54 55  55 56  56 57  57 58  58 59  59 60  60 61  61 62  62 63  63 64  64 65  65 66  66 67  67 68  68 69  69 70  70 71  71 72  72 73  73 74  74 75  75 76  76 77  77 78  78 79  79 80  80 81  81 82  82 83  83 84  84 85  85 86  86 87  87 88  88 89  89 90  90 91  91 92  92 93  93 94  94 95  95 96  96 97  97 98  98 99  99 100  </DataArray>
<DataArray  type="UInt32"  Name="offsets"  format="ascii">2 4 6 8 10 12 14 16 18 20 22 24 26 28 30 32 34 36 38 40 42 44 46 48 50 52 54 56 58 60 62 64 66 68 70 72 74 76 78 80 82 84 86 88 90 92 94 96 98 100 102 104 106 108 110 112 114 116 118 120 122 124 126 128 130 132 134 136 138 140 142 144 146 148 150 152 154 156 158 160 162 164 166 168 170 172 174 176 178 180 182 184 186 188 190 192 194 196 198 200 </DataArray>
<DataArray  type="UInt8"  Name="types"  format="ascii">3 3 3 3 3 3 3 3 3 3 3 3 3 3 3 3 3 3 3 3 3 3 3 3 3 3 3 3 3 3 3 3 3 3 3 3 3 3 3 3 3 3 3 3 3 3 3 3 3 3 3 3 3 3 3 3 3 3 3 3 3 3 3 3 3 3 3 3 3 3 3 3 3 3 3 3 3 3 3 3 3 3 3 3 3 3 3 3 3 3 3 3 3 3 3 3 3 3 3 3 </DataArray>
</Cells>
<PointData  Scalars="f_16"> 
<DataArray  type="Float64"  Name="f_16"  format="ascii">0.0000000000000000e+00  1.3672447738077378e+21  2.7331402420914204e+21  4.0963384309286563e+21  5.4554940282862536e+21  6.8092657116807871e+21  8.1563174719019706e+21  9.4953199314924575e+21  1.0824951656682904e+22  1.2143900461487591e+22  1.3450864702673555e+22  1.4744554564325353e+22  1.6023693330737623e+22  1.7287018646379384e+22  1.8533283761686535e+22  1.9761258763453154e+22  2.0969731788607366e+22  2.2157510220173848e+22  2.3323421864242849e+22  2.4466316106784043e+22  2.5585065049163618e+22  2.6678564621244124e+22  2.7745735670968351e+22  2.8785525029352105e+22  2.9796906549834901e+22  3.0778882120962644e+22  3.1730482651403160e+22  3.2650769026322358e+22  3.3538833034177115e+22  3.4393798263010450e+22  3.5214820965364305e+22  3.6001090890956385e+22  3.6751832086299378e+22  3.7466303660473295e+22  3.8143800516295403e+22  3.8783654046165954e+22  3.9385232791903173e+22  3.9947943067916243e+22  4.0471229547101263e+22  4.0954575808882046e+22  4.1397504848854895e+22  4.1799579549534301e+22  4.2160403111735156e+22  4.2479619446165601e+22  4.2756913524844148e+22  4.2992011691994263e+22  4.3184681934109614e+22  4.3334734108923315e+22  4.3442020133055419e+22  4.3506434128153317e+22  4.3527912525380895e+22  4.3506434128153284e+22  4.3442020133055360e+22  4.3334734108923240e+22  4.3184681934109521e+22  4.2992011691994162e+22  4.2756913524844031e+22  4.2479619446165475e+22  4.2160403111735022e+22  4.1799579549534150e+22  4.1397504848854702e+22  4.0954575808881828e+22  4.0471229547101012e+22  3.9947943067915974e+22  3.9385232791902888e+22  3.8783654046165660e+22  3.8143800516295084e+22  3.7466303660472964e+22  3.6751832086299034e+22  3.6001090890956020e+22  3.5214820965363902e+22  3.4393798263010031e+22  3.3538833034176671e+22  3.2650769026321905e+22  3.1730482651402724e+22  3.0778882120962204e+22  2.9796906549834469e+22  2.8785525029351694e+22  2.7745735670967935e+22  2.6678564621243726e+22  2.5585065049163240e+22  2.4466316106783674e+22  2.3323421864242505e+22  2.2157510220173537e+22  2.0969731788607068e+22  1.9761258763452890e+22  1.8533283761686307e+22  1.7287018646379176e+22  1.6023693330737434e+22  1.4744554564325200e+22  1.3450864702673421e+22  1.2143900461487469e+22  1.0824951656682816e+22  9.4953199314923778e+21  8.1563174719019035e+21  6.8092657116807451e+21  5.4554940282862158e+21  4.0963384309286248e+21  2.7331402420914120e+21  1.3672447738077339e+21  0.0000000000000000e+00  </DataArray> 
</PointData> 
</Piece>
</UnstructuredGrid>
</VTKFile>