<?xml version="1.0"?>
<VTKFile type="UnstructuredGrid"  version="0.1"  >
<UnstructuredGrid>
<Piece  NumberOfPoints="101" NumberOfCells="100">
<Points>
<DataArray  type="Float64"  NumberOfComponents="3"  format="ascii">0 0 0  3e-08 0 0  6.000000000000001e-08 0 0  9e-08 0 0  1.2e-07 0 0  1.5e-07 0 0  1.8e-07 0 0  2.1e-07 0 0  2.4e-07 0 0  2.7e-07 0 0  3e-07 0 0  3.3e-07 0 0  3.6e-07 0 0  3.9e-07 0 0  4.200000000000001e-07 0 0  4.5e-07 0 0  4.800000000000001e-07 0 0  5.1e-07 0 0  5.4e-07 0 0  5.7e-07 0 0  6e-07 0 0  6.3e-07 0 0  6.6e-07 0 0  6.9e-07 0 0  7.2e-07 0 0  7.5e-07 0 0  7.799999999999999e-07 0 0  8.100000000000001e-07 0 0  8.400000000000001e-07 0 0  8.7e-07 0 0  9.000000000000001e-07 0 0  9.3e-07 0 0  9.600000000000001e-07 0 0  9.900000000000001e-07 0 0  1.02e-06 0 0  1.05e-06 0 0  1.08e-06 0 0  1.11e-06 0 0  1.14e-06 0 0  1.17e-06 0 0  1.2e-06 0 0  1.23e-06 0 0  1.26e-06 0 0  1.29e-06 0 0  1.32e-06 0 0  1.35e-06 0 0  1.38e-06 0 0  1.41e-06 0 0  1.44e-06 0 0  1.47e-06 0 0  1.5e-06 0 0  1.53e-06 0 0  1.56e-06 0 0  1.59e-06 0 0  1.62e-06 0 0  1.65e-06 0 0  1.68e-06 0 0  1.71e-06 0 0  1.74e-06 0 0  1.77e-06 0 0  1.8e-06 0 0  1.83e-06 0 0  1.86e-06 0 0  1.89e-06 0 0  1.92e-06 0 0  1.95e-06 0 0  1.98e-06 0 0  2.01e-06 0 0  2.04e-06 0 0  2.07e-06 0 0  2.1e-06 0 0  2.13e-06 0 0  2.16e-06 0 0  2.19e-06 0 0  2.22e-06 0 0  2.25e-06 0 0  2.28e-06 0 0  2.31e-06 0 0  2.34e-06 0 0  2.37e-06 0 0  2.4e-06 0 0  2.43e-06 0 0  2.46e-06 0 0  2.49e-06 0 0  2.52e-06 0 0  2.55e-06 0 0  2.58e-06 0 0  2.61e-06 0 0  2.64e-06 0 0  2.67e-06 0 0  2.7e-06 0 0  2.73e-06 0 0  2.76e-06 0 0  2.79e-06 0 0  2.82e-06 0 0  2.85e-06 0 0  2.88e-06 0 0  2.91e-06 0 0  2.94e-06 0 0  2.97e-06 0 0  3e-06 0 0  </DataArray>
</Points>
<Cells>
<DataArray  type="UInt32"  Name="connectivity"  format="ascii">0 1  1 2  2 3  3 4  4 5  5 6  6 7  7 8  8 9  9 10  10 11  11 12  12 13  13 14  14 15  15 16  16 17  17 18  18 19  19 20  20 21  21 22  22 23  23 24  24 25  25 26  26 27  27 28  28 29  29 30  30 31  31 32  32 33  33 34  34 35  35 36  36 37  37 38  38 39  39 40  40 41  41 42  42 43  43 44  44 45  45 46  46 47  47 48  48 49  49 50  50 51  51 52  52 53  53 54  54 55  55 56  56 57  57 58  58 59  59 60  60 61  61 62  62 63  63 64  64 65  65 66  66 67  67 68  68 69  69 70  70 71  71 72  72 73  73 74  74 75  75 76  76 77  77 78  78 79  79 80  80 81  81 82  82 83  83 84  84 85  85 86  86 87  87 88  88 89  89 90  90 91  91 92  92 93  93 94  94 95  95 96  96 97  97 98  98 99  99 100  </DataArray>
<DataArray  type="UInt32"  Name="offsets"  format="ascii">2 4 6 8 10 12 14 16 18 20 22 24 26 28 30 32 34 36 38 40 42 44 46 48 50 52 54 56 58 60 62 64 66 68 70 72 74 76 78 80 82 84 86 88 90 92 94 96 98 100 102 104 106 108 110 112 114 116 118 120 122 124 126 128 130 132 134 136 138 140 142 144 146 148 150 152 154 156 158 160 162 164 166 168 170 172 174 176 178 180 182 184 186 188 190 192 194 196 198 200 </DataArray>
<DataArray  type="UInt8"  Name="types"  format="ascii">3 3 3 3 3 3 3 3 3 3 3 3 3 3 3 3 3 3 3 3 3 3 3 3 3 3 3 3 3 3 3 3 3 3 3 3 3 3 3 3 3 3 3 3 3 3 3 3 3 3 3 3 3 3 3 3 3 3 3 3 3 3 3 3 3 3 3 3 3 3 3 3 3 3 3 3 3 3 3 3 3 3 3 3 3 3 3 3 3 3 3 3 3 3 3 3 3 3 3 3 </DataArray>
</Cells>
<PointData  Scalars="f_16"> 
<DataArray  type="Float64"  Name="f_16"  format="ascii">0.0000000000000000e+00  4.0171675879098365e+21  8.0303707147029614e+21  1.2035648831722292e+22  1.6029049211368749e+22  2.0006630847980901e+22  2.3964468347146124e+22  2.7898655799604748e+22  3.1805310635924108e+22  3.5680577458138258e+22  3.9520631844571768e+22  4.3321684124092802e+22  4.7079983116070402e+22  5.0791819832345271e+22  5.4453531137560363e+22  5.8061503364238995e+22  6.1612175879042880e+22  6.5102044596690359e+22  6.8527665438067261e+22  7.1885657729117373e+22  7.5172707537158335e+22  7.8385570941330631e+22  8.1521077233951737e+22  8.4576132049616421e+22  8.7547720418955264e+22  9.0432909744037371e+22  9.3228852692481355e+22  9.5932790007418667e+22  9.8542053230535456e+22  1.0105406733550685e+23  1.0346635326922408e+23  1.0577653039830703e+23  1.0798231885848774e+23  1.1008154180454645e+23  1.1207212755858028e+23  1.1395211165448402e+23  1.1571963877662571e+23  1.1737296459080433e+23  1.1891045746568212e+23  1.2033060008299319e+23  1.2163199093493947e+23  1.2281334570729640e+23  1.2387349854686319e+23  1.2481140321200747e+23  1.2562613410516856e+23  1.2631688718630048e+23  1.2688298076635401e+23  1.2732385618001379e+23  1.2763907833702723e+23  1.2782833615158132e+23  1.2789144284930304e+23  1.2782833615158122e+23  1.2763907833702708e+23  1.2732385618001358e+23  1.2688298076635378e+23  1.2631688718630020e+23  1.2562613410516822e+23  1.2481140321200714e+23  1.2387349854686283e+23  1.2281334570729598e+23  1.2163199093493899e+23  1.2033060008299262e+23  1.1891045746568150e+23  1.1737296459080364e+23  1.1571963877662495e+23  1.1395211165448321e+23  1.1207212755857945e+23  1.1008154180454556e+23  1.0798231885848680e+23  1.0577653039830604e+23  1.0346635326922299e+23  1.0105406733550568e+23  9.8542053230534197e+22  9.5932790007417392e+22  9.3228852692480147e+22  9.0432909744036129e+22  8.7547720418954056e+22  8.4576132049615263e+22  8.1521077233950562e+22  7.8385570941329490e+22  7.5172707537157253e+22  7.1885657729116307e+22  6.8527665438066263e+22  6.5102044596689462e+22  6.1612175879042025e+22  5.8061503364238223e+22  5.4453531137559700e+22  5.0791819832344667e+22  4.7079983116069856e+22  4.3321684124092357e+22  3.9520631844571374e+22  3.5680577458137905e+22  3.1805310635923852e+22  2.7898655799604517e+22  2.3964468347145927e+22  2.0006630847980780e+22  1.6029049211368640e+22  1.2035648831722204e+22  8.0303707147029394e+21  4.0171675879098255e+21  0.0000000000000000e+00  </DataArray> 
</PointData> 
</Piece>
</UnstructuredGrid>
</VTKFile>