<?xml version="1.0"?>
<VTKFile type="UnstructuredGrid"  version="0.1"  >
<UnstructuredGrid>
<Piece  NumberOfPoints="101" NumberOfCells="100">
<Points>
<DataArray  type="Float64"  NumberOfComponents="3"  format="ascii">0 0 0  3e-08 0 0  6.000000000000001e-08 0 0  9e-08 0 0  1.2e-07 0 0  1.5e-07 0 0  1.8e-07 0 0  2.1e-07 0 0  2.4e-07 0 0  2.7e-07 0 0  3e-07 0 0  3.3e-07 0 0  3.6e-07 0 0  3.9e-07 0 0  4.200000000000001e-07 0 0  4.5e-07 0 0  4.800000000000001e-07 0 0  5.1e-07 0 0  5.4e-07 0 0  5.7e-07 0 0  6e-07 0 0  6.3e-07 0 0  6.6e-07 0 0  6.9e-07 0 0  7.2e-07 0 0  7.5e-07 0 0  7.799999999999999e-07 0 0  8.100000000000001e-07 0 0  8.400000000000001e-07 0 0  8.7e-07 0 0  9.000000000000001e-07 0 0  9.3e-07 0 0  9.600000000000001e-07 0 0  9.900000000000001e-07 0 0  1.02e-06 0 0  1.05e-06 0 0  1.08e-06 0 0  1.11e-06 0 0  1.14e-06 0 0  1.17e-06 0 0  1.2e-06 0 0  1.23e-06 0 0  1.26e-06 0 0  1.29e-06 0 0  1.32e-06 0 0  1.35e-06 0 0  1.38e-06 0 0  1.41e-06 0 0  1.44e-06 0 0  1.47e-06 0 0  1.5e-06 0 0  1.53e-06 0 0  1.56e-06 0 0  1.59e-06 0 0  1.62e-06 0 0  1.65e-06 0 0  1.68e-06 0 0  1.71e-06 0 0  1.74e-06 0 0  1.77e-06 0 0  1.8e-06 0 0  1.83e-06 0 0  1.86e-06 0 0  1.89e-06 0 0  1.92e-06 0 0  1.95e-06 0 0  1.98e-06 0 0  2.01e-06 0 0  2.04e-06 0 0  2.07e-06 0 0  2.1e-06 0 0  2.13e-06 0 0  2.16e-06 0 0  2.19e-06 0 0  2.22e-06 0 0  2.25e-06 0 0  2.28e-06 0 0  2.31e-06 0 0  2.34e-06 0 0  2.37e-06 0 0  2.4e-06 0 0  2.43e-06 0 0  2.46e-06 0 0  2.49e-06 0 0  2.52e-06 0 0  2.55e-06 0 0  2.58e-06 0 0  2.61e-06 0 0  2.64e-06 0 0  2.67e-06 0 0  2.7e-06 0 0  2.73e-06 0 0  2.76e-06 0 0  2.79e-06 0 0  2.82e-06 0 0  2.85e-06 0 0  2.88e-06 0 0  2.91e-06 0 0  2.94e-06 0 0  2.97e-06 0 0  3e-06 0 0  </DataArray>
</Points>
<Cells>
<DataArray  type="UInt32"  Name="connectivity"  format="ascii">0 1  1 2  2 3  3 4  4 5  5 6  6 7  7 8  8 9  9 10  10 11  11 12  12 13  13 14  14 15  15 16  16 17  17 18  18 19  19 20  20 21  21 22  22 23  23 24  24 25  25 26  26 27  27 28  28 29  29 30  30 31  31 32  32 33  33 34  34 35  35 36  36 37  37 38  38 39  39 40  40 41  41 42  42 43  43 44  44 45  45 46  46 47  47 48  48 49  49 50  50 51  51 52  52 53  53 54  54 55  55 56  56 57  57 58  58 59  59 60  60 61  61 62  62 63  63 64  64 65  65 66  66 67  67 68  68 69  69 70  70 71  71 72  72 73  73 74  74 75  75 76  76 77  77 78  78 79  79 80  80 81  81 82  82 83  83 84  84 85  85 86  86 87  87 88  88 89  89 90  90 91  91 92  92 93  93 94  94 95  95 96  96 97  97 98  98 99  99 100  </DataArray>
<DataArray  type="UInt32"  Name="offsets"  format="ascii">2 4 6 8 10 12 14 16 18 20 22 24 26 28 30 32 34 36 38 40 42 44 46 48 50 52 54 56 58 60 62 64 66 68 70 72 74 76 78 80 82 84 86 88 90 92 94 96 98 100 102 104 106 108 110 112 114 116 118 120 122 124 126 128 130 132 134 136 138 140 142 144 146 148 150 152 154 156 158 160 162 164 166 168 170 172 174 176 178 180 182 184 186 188 190 192 194 196 198 200 </DataArray>
<DataArray  type="UInt8"  Name="types"  format="ascii">3 3 3 3 3 3 3 3 3 3 3 3 3 3 3 3 3 3 3 3 3 3 3 3 3 3 3 3 3 3 3 3 3 3 3 3 3 3 3 3 3 3 3 3 3 3 3 3 3 3 3 3 3 3 3 3 3 3 3 3 3 3 3 3 3 3 3 3 3 3 3 3 3 3 3 3 3 3 3 3 3 3 3 3 3 3 3 3 3 3 3 3 3 3 3 3 3 3 3 3 </DataArray>
</Cells>
<PointData  Scalars="f_16"> 
<DataArray  type="Float64"  Name="f_16"  format="ascii">0.0000000000000000e+00  1.7372512781849552e+21  3.4727880990910841e+21  5.2048976974019790e+21  6.9318706900563038e+21  8.6520027632025668e+21  1.0363596354151208e+22  1.2064962326664070e+22  1.3754421637928018e+22  1.5430306995567524e+22  1.7090964503061015e+22  1.8734755291937108e+22  2.0360057139139969e+22  2.1965266067967667e+22  2.3548797931003549e+22  2.5109089973478510e+22  2.6644602375521333e+22  2.8153819771774937e+22  2.9635252746879129e+22  3.1087439305343700e+22  3.2508946314361437e+22  3.3898370918137226e+22  3.5254341922337285e+22  3.6575521147292416e+22  3.7860604748619756e+22  3.9108324503959722e+22  4.0317449064558283e+22  4.1486785170459582e+22  4.2615178828109239e+22  4.3701516449206715e+22  4.4744725949682461e+22  4.5743777807715344e+22  4.6697686079746353e+22  4.7605509373485778e+22  4.8466351776953658e+22  4.9279363742636687e+22  5.0043742925888944e+22  5.0758734976749190e+22  5.1423634284393043e+22  5.2037784673485662e+22  5.2600580051747492e+22  5.3111465008094125e+22  5.3569935360759899e+22  5.3975538654864390e+22  5.4327874608930688e+22  5.4626595509914839e+22  5.4871406556356628e+22  5.5062066149312973e+22  5.5198386130786888e+22  5.5280231969416676e+22  5.5307522893242106e+22  5.5280231969416643e+22  5.5198386130786829e+22  5.5062066149312889e+22  5.4871406556356519e+22  5.4626595509914705e+22  5.4327874608930537e+22  5.3975538654864239e+22  5.3569935360759739e+22  5.3111465008093949e+22  5.2600580051747283e+22  5.2037784673485419e+22  5.1423634284392774e+22  5.0758734976748888e+22  5.0043742925888617e+22  4.9279363742636335e+22  4.8466351776953281e+22  4.7605509373485375e+22  4.6697686079745934e+22  4.5743777807714891e+22  4.4744725949681966e+22  4.3701516449206195e+22  4.2615178828108676e+22  4.1486785170459020e+22  4.0317449064557746e+22  3.9108324503959168e+22  3.7860604748619219e+22  3.6575521147291905e+22  3.5254341922336769e+22  3.3898370918136722e+22  3.2508946314360963e+22  3.1087439305343234e+22  2.9635252746878693e+22  2.8153819771774542e+22  2.6644602375520955e+22  2.5109089973478179e+22  2.3548797931003260e+22  2.1965266067967407e+22  2.0360057139139734e+22  1.8734755291936919e+22  1.7090964503060843e+22  1.5430306995567371e+22  1.3754421637927905e+22  1.2064962326663973e+22  1.0363596354151124e+22  8.6520027632025165e+21  6.9318706900562577e+21  5.2048976974019392e+21  3.4727880990910741e+21  1.7372512781849500e+21  0.0000000000000000e+00  </DataArray> 
</PointData> 
</Piece>
</UnstructuredGrid>
</VTKFile>