<?xml version="1.0"?>
<VTKFile type="UnstructuredGrid"  version="0.1"  >
<UnstructuredGrid>
<Piece  NumberOfPoints="101" NumberOfCells="100">
<Points>
<DataArray  type="Float64"  NumberOfComponents="3"  format="ascii">0 0 0  3e-08 0 0  6.000000000000001e-08 0 0  9e-08 0 0  1.2e-07 0 0  1.5e-07 0 0  1.8e-07 0 0  2.1e-07 0 0  2.4e-07 0 0  2.7e-07 0 0  3e-07 0 0  3.3e-07 0 0  3.6e-07 0 0  3.9e-07 0 0  4.200000000000001e-07 0 0  4.5e-07 0 0  4.800000000000001e-07 0 0  5.1e-07 0 0  5.4e-07 0 0  5.7e-07 0 0  6e-07 0 0  6.3e-07 0 0  6.6e-07 0 0  6.9e-07 0 0  7.2e-07 0 0  7.5e-07 0 0  7.799999999999999e-07 0 0  8.100000000000001e-07 0 0  8.400000000000001e-07 0 0  8.7e-07 0 0  9.000000000000001e-07 0 0  9.3e-07 0 0  9.600000000000001e-07 0 0  9.900000000000001e-07 0 0  1.02e-06 0 0  1.05e-06 0 0  1.08e-06 0 0  1.11e-06 0 0  1.14e-06 0 0  1.17e-06 0 0  1.2e-06 0 0  1.23e-06 0 0  1.26e-06 0 0  1.29e-06 0 0  1.32e-06 0 0  1.35e-06 0 0  1.38e-06 0 0  1.41e-06 0 0  1.44e-06 0 0  1.47e-06 0 0  1.5e-06 0 0  1.53e-06 0 0  1.56e-06 0 0  1.59e-06 0 0  1.62e-06 0 0  1.65e-06 0 0  1.68e-06 0 0  1.71e-06 0 0  1.74e-06 0 0  1.77e-06 0 0  1.8e-06 0 0  1.83e-06 0 0  1.86e-06 0 0  1.89e-06 0 0  1.92e-06 0 0  1.95e-06 0 0  1.98e-06 0 0  2.01e-06 0 0  2.04e-06 0 0  2.07e-06 0 0  2.1e-06 0 0  2.13e-06 0 0  2.16e-06 0 0  2.19e-06 0 0  2.22e-06 0 0  2.25e-06 0 0  2.28e-06 0 0  2.31e-06 0 0  2.34e-06 0 0  2.37e-06 0 0  2.4e-06 0 0  2.43e-06 0 0  2.46e-06 0 0  2.49e-06 0 0  2.52e-06 0 0  2.55e-06 0 0  2.58e-06 0 0  2.61e-06 0 0  2.64e-06 0 0  2.67e-06 0 0  2.7e-06 0 0  2.73e-06 0 0  2.76e-06 0 0  2.79e-06 0 0  2.82e-06 0 0  2.85e-06 0 0  2.88e-06 0 0  2.91e-06 0 0  2.94e-06 0 0  2.97e-06 0 0  3e-06 0 0  </DataArray>
</Points>
<Cells>
<DataArray  type="UInt32"  Name="connectivity"  format="ascii">0 1  1 2  2 3  3 4  4 5  5 6  6 7  7 8  8 9  9 10  10 11  11 12  12 13  13 14  14 15  15 16  16 17  17 18  18 19  19 20  20 21  21 22  22 23  23 24  24 25  25 26  26 27  27 28  28 29  29 30  30 31  31 32  32 33  33 34  34 35  35 36  36 37  37 38  38 39  39 40  40 41  41 42  42 43  43 44  44 45  45 46  46 47  47 48  48 49  49 50  50 51  51 52  52 53  53 54  54 55  55 56  56 57  57 58  58 59  59 60  60 61  61 62  62 63  63 64  64 65  65 66  66 67  67 68  68 69  69 70  70 71  71 72  72 73  73 74  74 75  75 76  76 77  77 78  78 79  79 80  80 81  81 82  82 83  83 84  84 85  85 86  86 87  87 88  88 89  89 90  90 91  91 92  92 93  93 94  94 95  95 96  96 97  97 98  98 99  99 100  </DataArray>
<DataArray  type="UInt32"  Name="offsets"  format="ascii">2 4 6 8 10 12 14 16 18 20 22 24 26 28 30 32 34 36 38 40 42 44 46 48 50 52 54 56 58 60 62 64 66 68 70 72 74 76 78 80 82 84 86 88 90 92 94 96 98 100 102 104 106 108 110 112 114 116 118 120 122 124 126 128 130 132 134 136 138 140 142 144 146 148 150 152 154 156 158 160 162 164 166 168 170 172 174 176 178 180 182 184 186 188 190 192 194 196 198 200 </DataArray>
<DataArray  type="UInt8"  Name="types"  format="ascii">3 3 3 3 3 3 3 3 3 3 3 3 3 3 3 3 3 3 3 3 3 3 3 3 3 3 3 3 3 3 3 3 3 3 3 3 3 3 3 3 3 3 3 3 3 3 3 3 3 3 3 3 3 3 3 3 3 3 3 3 3 3 3 3 3 3 3 3 3 3 3 3 3 3 3 3 3 3 3 3 3 3 3 3 3 3 3 3 3 3 3 3 3 3 3 3 3 3 3 3 </DataArray>
</Cells>
<PointData  Scalars="f_16"> 
<DataArray  type="Float64"  Name="f_16"  format="ascii">0.0000000000000000e+00  2.8823046463199484e+20  5.7617648059388356e+20  8.6355387993205545e+20  1.1500790558488579e+21  1.4354692425882641e+21  1.7194427944915380e+21  2.0017194639474929e+21  2.2820206779630509e+21  2.5600698130811543e+21  2.8355924683747198e+21  3.1083167362472272e+21  3.3779734707726854e+21  3.6442965533101696e+21  3.9070231551307919e+21  4.1658939967979205e+21  4.4206536040446862e+21  4.6710505598962342e+21  4.9168377527879325e+21  5.1577726204346441e+21  5.3936173892104178e+21  5.6241393088023600e+21  5.8491108819070804e+21  6.0683100887430694e+21  6.2815206061574256e+21  6.4885320211106753e+21  6.6891400383290514e+21  6.8831466819192598e+21  7.0703604907467824e+21  7.2505967073848994e+21  7.4236774604479744e+21  7.5894319401290275e+21  7.7476965667683959e+21  7.8983151522871069e+21  8.0411390543256565e+21  8.1760273229360713e+21  8.3028468396824881e+21  8.4214724490129844e+21  8.5317870817729975e+21  8.6336818707384364e+21  8.7270562580545027e+21  8.8118180944741401e+21  8.8878837302982261e+21  8.9551780979277153e+21  9.0136347859463050e+21  9.0631961046604810e+21  9.1038131430322854e+21  9.1354458169485988e+21  9.1580629087793248e+21  9.1716420981854222e+21  9.1761699841463802e+21  9.1716420981854149e+21  9.1580629087793122e+21  9.1354458169485820e+21  9.1038131430322665e+21  9.0631961046604589e+21  9.0136347859462788e+21  8.9551780979276870e+21  8.8878837302981957e+21  8.8118180944741076e+21  8.7270562580544639e+21  8.6336818707383934e+21  8.5317870817729472e+21  8.4214724490129310e+21  8.3028468396824283e+21  8.1760273229360105e+21  8.0411390543255914e+21  7.8983151522870387e+21  7.7476965667683246e+21  7.5894319401289499e+21  7.4236774604478905e+21  7.2505967073848113e+21  7.0703604907466859e+21  6.8831466819191623e+21  6.6891400383289560e+21  6.4885320211105799e+21  6.2815206061573323e+21  6.0683100887429813e+21  5.8491108819069903e+21  5.6241393088022729e+21  5.3936173892103370e+21  5.1577726204345644e+21  4.9168377527878581e+21  4.6710505598961682e+21  4.4206536040446223e+21  4.1658939967978623e+21  3.9070231551307421e+21  3.6442965533101245e+21  3.3779734707726445e+21  3.1083167362471942e+21  2.8355924683746894e+21  2.5600698130811275e+21  2.2820206779630307e+21  2.0017194639474754e+21  1.7194427944915231e+21  1.4354692425882550e+21  1.1500790558488497e+21  8.6355387993204864e+20  5.7617648059388166e+20  2.8823046463199389e+20  0.0000000000000000e+00  </DataArray> 
</PointData> 
</Piece>
</UnstructuredGrid>
</VTKFile>