<?xml version="1.0"?>
<VTKFile type="UnstructuredGrid"  version="0.1"  >
<UnstructuredGrid>
<Piece  NumberOfPoints="101" NumberOfCells="100">
<Points>
<DataArray  type="Float64"  NumberOfComponents="3"  format="ascii">0 0 0  3e-08 0 0  6.000000000000001e-08 0 0  9e-08 0 0  1.2e-07 0 0  1.5e-07 0 0  1.8e-07 0 0  2.1e-07 0 0  2.4e-07 0 0  2.7e-07 0 0  3e-07 0 0  3.3e-07 0 0  3.6e-07 0 0  3.9e-07 0 0  4.200000000000001e-07 0 0  4.5e-07 0 0  4.800000000000001e-07 0 0  5.1e-07 0 0  5.4e-07 0 0  5.7e-07 0 0  6e-07 0 0  6.3e-07 0 0  6.6e-07 0 0  6.9e-07 0 0  7.2e-07 0 0  7.5e-07 0 0  7.799999999999999e-07 0 0  8.100000000000001e-07 0 0  8.400000000000001e-07 0 0  8.7e-07 0 0  9.000000000000001e-07 0 0  9.3e-07 0 0  9.600000000000001e-07 0 0  9.900000000000001e-07 0 0  1.02e-06 0 0  1.05e-06 0 0  1.08e-06 0 0  1.11e-06 0 0  1.14e-06 0 0  1.17e-06 0 0  1.2e-06 0 0  1.23e-06 0 0  1.26e-06 0 0  1.29e-06 0 0  1.32e-06 0 0  1.35e-06 0 0  1.38e-06 0 0  1.41e-06 0 0  1.44e-06 0 0  1.47e-06 0 0  1.5e-06 0 0  1.53e-06 0 0  1.56e-06 0 0  1.59e-06 0 0  1.62e-06 0 0  1.65e-06 0 0  1.68e-06 0 0  1.71e-06 0 0  1.74e-06 0 0  1.77e-06 0 0  1.8e-06 0 0  1.83e-06 0 0  1.86e-06 0 0  1.89e-06 0 0  1.92e-06 0 0  1.95e-06 0 0  1.98e-06 0 0  2.01e-06 0 0  2.04e-06 0 0  2.07e-06 0 0  2.1e-06 0 0  2.13e-06 0 0  2.16e-06 0 0  2.19e-06 0 0  2.22e-06 0 0  2.25e-06 0 0  2.28e-06 0 0  2.31e-06 0 0  2.34e-06 0 0  2.37e-06 0 0  2.4e-06 0 0  2.43e-06 0 0  2.46e-06 0 0  2.49e-06 0 0  2.52e-06 0 0  2.55e-06 0 0  2.58e-06 0 0  2.61e-06 0 0  2.64e-06 0 0  2.67e-06 0 0  2.7e-06 0 0  2.73e-06 0 0  2.76e-06 0 0  2.79e-06 0 0  2.82e-06 0 0  2.85e-06 0 0  2.88e-06 0 0  2.91e-06 0 0  2.94e-06 0 0  2.97e-06 0 0  3e-06 0 0  </DataArray>
</Points>
<Cells>
<DataArray  type="UInt32"  Name="connectivity"  format="ascii">0 1  1 2  2 3  3 4  4 5  5 6  6 7  7 8  8 9  9 10  10 11  11 12  12 13  13 14  14 15  15 16  16 17  17 18  18 19  19 20  20 21  21 22  22 23  23 24  24 25  25 26  26 27  27 28  28 29  29 30  30 31  31 32  32 33  33 34  34 35  35 36  36 37  37 38  38 39  39 40  40 41  41 42  42 43  43 44  44 45  45 46  46 47  47 48  48 49  49 50  50 51  51 52  52 53  53 54  54 55  55 56  56 57  57 58  58 59  59 60  60 61  61 62  62 63  63 64  64 65  65 66  66 67  67 68  68 69  69 70  70 71  71 72  72 73  73 74  74 75  75 76  76 77  77 78  78 79  79 80  80 81  81 82  82 83  83 84  84 85  85 86  86 87  87 88  88 89  89 90  90 91  91 92  92 93  93 94  94 95  95 96  96 97  97 98  98 99  99 100  </DataArray>
<DataArray  type="UInt32"  Name="offsets"  format="ascii">2 4 6 8 10 12 14 16 18 20 22 24 26 28 30 32 34 36 38 40 42 44 46 48 50 52 54 56 58 60 62 64 66 68 70 72 74 76 78 80 82 84 86 88 90 92 94 96 98 100 102 104 106 108 110 112 114 116 118 120 122 124 126 128 130 132 134 136 138 140 142 144 146 148 150 152 154 156 158 160 162 164 166 168 170 172 174 176 178 180 182 184 186 188 190 192 194 196 198 200 </DataArray>
<DataArray  type="UInt8"  Name="types"  format="ascii">3 3 3 3 3 3 3 3 3 3 3 3 3 3 3 3 3 3 3 3 3 3 3 3 3 3 3 3 3 3 3 3 3 3 3 3 3 3 3 3 3 3 3 3 3 3 3 3 3 3 3 3 3 3 3 3 3 3 3 3 3 3 3 3 3 3 3 3 3 3 3 3 3 3 3 3 3 3 3 3 3 3 3 3 3 3 3 3 3 3 3 3 3 3 3 3 3 3 3 3 </DataArray>
</Cells>
<PointData  Scalars="f_16"> 
<DataArray  type="Float64"  Name="f_16"  format="ascii">0.0000000000000000e+00  2.4882109270354543e+21  4.9739662902107937e+21  7.4548129490116805e+21  9.9283026072237905e+21  1.2391994229106261e+22  1.4843456448399965e+22  1.7280269967793100e+22  1.9700029946476167e+22  2.2100348373430107e+22  2.4478856424105393e+22  2.6833206798166406e+22  2.9161076035993874e+22  3.1460166811659421e+22  3.3728210200109227e+22  3.5962967916319391e+22  3.8162234524213258e+22  4.0323839613160642e+22  4.2445649939911250e+22  4.4525571533848156e+22  4.6561551763483979e+22  4.8551581362160195e+22  5.0493696410950591e+22  5.2385980276811812e+22  5.4226565504068584e+22  5.6013635657366531e+22  5.7745427114274119e+22  5.9420230805764734e+22  6.1036393902860763e+22  6.2592321447775810e+22  6.4086477927944815e+22  6.5517388791388897e+22  6.6883641901919565e+22  6.8183888932745798e+22  6.9416846697109236e+22  7.0581298414633798e+22  7.1676094912140302e+22  7.2700155757741004e+22  7.3652470327094672e+22  7.4532098800770110e+22  7.5338173091733832e+22  7.6069897702046547e+22  7.6726550507922924e+22  7.7307483472380073e+22  7.7812123284771285e+22  7.8239971926573964e+22  7.8590607162873349e+22  7.8863682959057093e+22  7.9058929822309282e+22  7.9176155067567145e+22  7.9215243007677728e+22  7.9176155067567078e+22  7.9058929822309181e+22  7.8863682959056958e+22  7.8590607162873181e+22  7.8239971926573763e+22  7.7812123284771067e+22  7.7307483472379838e+22  7.6726550507922672e+22  7.6069897702046278e+22  7.5338173091733513e+22  7.4532098800769741e+22  7.3652470327094270e+22  7.2700155757740559e+22  7.1676094912139815e+22  7.0581298414633286e+22  6.9416846697108691e+22  6.8183888932745228e+22  6.6883641901918970e+22  6.5517388791388251e+22  6.4086477927944102e+22  6.2592321447775072e+22  6.1036393902859966e+22  5.9420230805763920e+22  5.7745427114273339e+22  5.6013635657365734e+22  5.4226565504067812e+22  5.2385980276811065e+22  5.0493696410949828e+22  4.8551581362159465e+22  4.6561551763483291e+22  4.4525571533847476e+22  4.2445649939910613e+22  4.0323839613160064e+22  3.8162234524212713e+22  3.5962967916318904e+22  3.3728210200108804e+22  3.1460166811659044e+22  2.9161076035993538e+22  2.6833206798166130e+22  2.4478856424105146e+22  2.2100348373429888e+22  1.9700029946476007e+22  1.7280269967792961e+22  1.4843456448399845e+22  1.2391994229106187e+22  9.9283026072237213e+21  7.4548129490116249e+21  4.9739662902107790e+21  2.4882109270354475e+21  0.0000000000000000e+00  </DataArray> 
</PointData> 
</Piece>
</UnstructuredGrid>
</VTKFile>