<?xml version="1.0"?>
<VTKFile type="UnstructuredGrid"  version="0.1"  >
<UnstructuredGrid>
<Piece  NumberOfPoints="101" NumberOfCells="100">
<Points>
<DataArray  type="Float64"  NumberOfComponents="3"  format="ascii">0 0 0  3e-08 0 0  6.000000000000001e-08 0 0  9e-08 0 0  1.2e-07 0 0  1.5e-07 0 0  1.8e-07 0 0  2.1e-07 0 0  2.4e-07 0 0  2.7e-07 0 0  3e-07 0 0  3.3e-07 0 0  3.6e-07 0 0  3.9e-07 0 0  4.200000000000001e-07 0 0  4.5e-07 0 0  4.800000000000001e-07 0 0  5.1e-07 0 0  5.4e-07 0 0  5.7e-07 0 0  6e-07 0 0  6.3e-07 0 0  6.6e-07 0 0  6.9e-07 0 0  7.2e-07 0 0  7.5e-07 0 0  7.799999999999999e-07 0 0  8.100000000000001e-07 0 0  8.400000000000001e-07 0 0  8.7e-07 0 0  9.000000000000001e-07 0 0  9.3e-07 0 0  9.600000000000001e-07 0 0  9.900000000000001e-07 0 0  1.02e-06 0 0  1.05e-06 0 0  1.08e-06 0 0  1.11e-06 0 0  1.14e-06 0 0  1.17e-06 0 0  1.2e-06 0 0  1.23e-06 0 0  1.26e-06 0 0  1.29e-06 0 0  1.32e-06 0 0  1.35e-06 0 0  1.38e-06 0 0  1.41e-06 0 0  1.44e-06 0 0  1.47e-06 0 0  1.5e-06 0 0  1.53e-06 0 0  1.56e-06 0 0  1.59e-06 0 0  1.62e-06 0 0  1.65e-06 0 0  1.68e-06 0 0  1.71e-06 0 0  1.74e-06 0 0  1.77e-06 0 0  1.8e-06 0 0  1.83e-06 0 0  1.86e-06 0 0  1.89e-06 0 0  1.92e-06 0 0  1.95e-06 0 0  1.98e-06 0 0  2.01e-06 0 0  2.04e-06 0 0  2.07e-06 0 0  2.1e-06 0 0  2.13e-06 0 0  2.16e-06 0 0  2.19e-06 0 0  2.22e-06 0 0  2.25e-06 0 0  2.28e-06 0 0  2.31e-06 0 0  2.34e-06 0 0  2.37e-06 0 0  2.4e-06 0 0  2.43e-06 0 0  2.46e-06 0 0  2.49e-06 0 0  2.52e-06 0 0  2.55e-06 0 0  2.58e-06 0 0  2.61e-06 0 0  2.64e-06 0 0  2.67e-06 0 0  2.7e-06 0 0  2.73e-06 0 0  2.76e-06 0 0  2.79e-06 0 0  2.82e-06 0 0  2.85e-06 0 0  2.88e-06 0 0  2.91e-06 0 0  2.94e-06 0 0  2.97e-06 0 0  3e-06 0 0  </DataArray>
</Points>
<Cells>
<DataArray  type="UInt32"  Name="connectivity"  format="ascii">0 1  1 2  2 3  3 4  4 5  5 6  6 7  7 8  8 9  9 10  10 11  11 12  12 13  13 14  14 15  15 16  16 17  17 18  18 19  19 20  20 21  21 22  22 23  23 24  24 25  25 26  26 27  27 28  28 29  29 30  30 31  31 32  32 33  33 34  34 35  35 36  36 37  37 38  38 39  39 40  40 41  41 42  42 43  43 44  44 45  45 46  46 47  47 48  48 49  49 50  50 51  51 52  52 53  53 54  54 55  55 56  56 57  57 58  58 59  59 60  60 61  61 62  62 63  63 64  64 65  65 66  66 67  67 68  68 69  69 70  70 71  71 72  72 73  73 74  74 75  75 76  76 77  77 78  78 79  79 80  80 81  81 82  82 83  83 84  84 85  85 86  86 87  87 88  88 89  89 90  90 91  91 92  92 93  93 94  94 95  95 96  96 97  97 98  98 99  99 100  </DataArray>
<DataArray  type="UInt32"  Name="offsets"  format="ascii">2 4 6 8 10 12 14 16 18 20 22 24 26 28 30 32 34 36 38 40 42 44 46 48 50 52 54 56 58 60 62 64 66 68 70 72 74 76 78 80 82 84 86 88 90 92 94 96 98 100 102 104 106 108 110 112 114 116 118 120 122 124 126 128 130 132 134 136 138 140 142 144 146 148 150 152 154 156 158 160 162 164 166 168 170 172 174 176 178 180 182 184 186 188 190 192 194 196 198 200 </DataArray>
<DataArray  type="UInt8"  Name="types"  format="ascii">3 3 3 3 3 3 3 3 3 3 3 3 3 3 3 3 3 3 3 3 3 3 3 3 3 3 3 3 3 3 3 3 3 3 3 3 3 3 3 3 3 3 3 3 3 3 3 3 3 3 3 3 3 3 3 3 3 3 3 3 3 3 3 3 3 3 3 3 3 3 3 3 3 3 3 3 3 3 3 3 3 3 3 3 3 3 3 3 3 3 3 3 3 3 3 3 3 3 3 3 </DataArray>
</Cells>
<PointData  Scalars="f_16"> 
<DataArray  type="Float64"  Name="f_16"  format="ascii">0.0000000000000000e+00  1.9055180271884410e+23  3.6502675280451567e+23  5.2478028793571213e+23  6.7105348002972384e+23  8.0498267671611137e+23  9.2760832924233054e+23  1.0398830753923574e+24  1.1426791402118109e+24  1.2367951120333414e+24  1.3229621464429600e+24  1.4018496463838574e+24  1.4740704625245431e+24  1.5401856542912285e+24  1.6007088485513284e+24  1.6561102298092366e+24  1.7068201929128791e+24  1.7532326866476958e+24  1.7957082741933265e+24  1.8345769342186634e+24  1.8701406243760391e+24  1.9026756271094904e+24  1.9324346960008914e+24  1.9596490193282069e+24  1.9845300160900958e+24  2.0072709784495770e+24  2.0280485733563559e+24  2.0470242150134211e+24  2.0643453188501327e+24  2.0801464467435120e+24  2.0945503523845735e+24  2.1076689349107971e+24  2.1196041082131944e+24  2.1304485926713260e+24  2.1402866354669991e+24  2.1491946650725153e+24  2.1572418849979722e+24  2.1644908114102493e+24  2.1709977588002492e+24  2.1768132774713901e+24  2.1819825462480483e+24  2.1865457234547727e+24  2.1905382588929110e+24  2.1939911692382881e+24  2.1969312789994133e+24  2.1993814289081379e+24  2.2013606533616813e+24  2.2028843282945126e+24  2.2039642906288545e+24  2.2046089302317849e+24  2.2048232550933128e+24  2.2046089302317844e+24  2.2039642906288542e+24  2.2028843282945121e+24  2.2013606533616808e+24  2.1993814289081376e+24  2.1969312789994130e+24  2.1939911692382881e+24  2.1905382588929113e+24  2.1865457234547730e+24  2.1819825462480480e+24  2.1768132774713892e+24  2.1709977588002479e+24  2.1644908114102479e+24  2.1572418849979701e+24  2.1491946650725129e+24  2.1402866354669967e+24  2.1304485926713234e+24  2.1196041082131909e+24  2.1076689349107926e+24  2.0945503523845673e+24  2.0801464467435043e+24  2.0643453188501238e+24  2.0470242150134123e+24  2.0280485733563476e+24  2.0072709784495681e+24  1.9845300160900877e+24  1.9596490193281996e+24  1.9324346960008836e+24  1.9026756271094832e+24  1.8701406243760329e+24  1.8345769342186573e+24  1.7957082741933217e+24  1.7532326866476920e+24  1.7068201929128761e+24  1.6561102298092350e+24  1.6007088485513279e+24  1.5401856542912288e+24  1.4740704625245442e+24  1.4018496463838604e+24  1.3229621464429630e+24  1.2367951120333444e+24  1.1426791402118151e+24  1.0398830753923610e+24  9.2760832924233390e+23  8.0498267671611553e+23  6.7105348002972679e+23  5.2478028793571401e+23  3.6502675280451842e+23  1.9055180271884558e+23  0.0000000000000000e+00  </DataArray> 
</PointData> 
</Piece>
</UnstructuredGrid>
</VTKFile>