<?xml version="1.0"?>
<VTKFile type="UnstructuredGrid"  version="0.1"  >
<UnstructuredGrid>
<Piece  NumberOfPoints="101" NumberOfCells="100">
<Points>
<DataArray  type="Float64"  NumberOfComponents="3"  format="ascii">0 0 0  3e-08 0 0  6.000000000000001e-08 0 0  9e-08 0 0  1.2e-07 0 0  1.5e-07 0 0  1.8e-07 0 0  2.1e-07 0 0  2.4e-07 0 0  2.7e-07 0 0  3e-07 0 0  3.3e-07 0 0  3.6e-07 0 0  3.9e-07 0 0  4.200000000000001e-07 0 0  4.5e-07 0 0  4.800000000000001e-07 0 0  5.1e-07 0 0  5.4e-07 0 0  5.7e-07 0 0  6e-07 0 0  6.3e-07 0 0  6.6e-07 0 0  6.9e-07 0 0  7.2e-07 0 0  7.5e-07 0 0  7.799999999999999e-07 0 0  8.100000000000001e-07 0 0  8.400000000000001e-07 0 0  8.7e-07 0 0  9.000000000000001e-07 0 0  9.3e-07 0 0  9.600000000000001e-07 0 0  9.900000000000001e-07 0 0  1.02e-06 0 0  1.05e-06 0 0  1.08e-06 0 0  1.11e-06 0 0  1.14e-06 0 0  1.17e-06 0 0  1.2e-06 0 0  1.23e-06 0 0  1.26e-06 0 0  1.29e-06 0 0  1.32e-06 0 0  1.35e-06 0 0  1.38e-06 0 0  1.41e-06 0 0  1.44e-06 0 0  1.47e-06 0 0  1.5e-06 0 0  1.53e-06 0 0  1.56e-06 0 0  1.59e-06 0 0  1.62e-06 0 0  1.65e-06 0 0  1.68e-06 0 0  1.71e-06 0 0  1.74e-06 0 0  1.77e-06 0 0  1.8e-06 0 0  1.83e-06 0 0  1.86e-06 0 0  1.89e-06 0 0  1.92e-06 0 0  1.95e-06 0 0  1.98e-06 0 0  2.01e-06 0 0  2.04e-06 0 0  2.07e-06 0 0  2.1e-06 0 0  2.13e-06 0 0  2.16e-06 0 0  2.19e-06 0 0  2.22e-06 0 0  2.25e-06 0 0  2.28e-06 0 0  2.31e-06 0 0  2.34e-06 0 0  2.37e-06 0 0  2.4e-06 0 0  2.43e-06 0 0  2.46e-06 0 0  2.49e-06 0 0  2.52e-06 0 0  2.55e-06 0 0  2.58e-06 0 0  2.61e-06 0 0  2.64e-06 0 0  2.67e-06 0 0  2.7e-06 0 0  2.73e-06 0 0  2.76e-06 0 0  2.79e-06 0 0  2.82e-06 0 0  2.85e-06 0 0  2.88e-06 0 0  2.91e-06 0 0  2.94e-06 0 0  2.97e-06 0 0  3e-06 0 0  </DataArray>
</Points>
<Cells>
<DataArray  type="UInt32"  Name="connectivity"  format="ascii">0 1  1 2  2 3  3 4  4 5  5 6  6 7  7 8  8 9  9 10  10 11  11 12  12 13  13 14  14 15  15 16  16 17  17 18  18 19  19 20  20 21  21 22  22 23  23 24  24 25  25 26  26 27  27 28  28 29  29 30  30 31  31 32  32 33  33 34  34 35  35 36  36 37  37 38  38 39  39 40  40 41  41 42  42 43  43 44  44 45  45 46  46 47  47 48  48 49  49 50  50 51  51 52  52 53  53 54  54 55  55 56  56 57  57 58  58 59  59 60  60 61  61 62  62 63  63 64  64 65  65 66  66 67  67 68  68 69  69 70  70 71  71 72  72 73  73 74  74 75  75 76  76 77  77 78  78 79  79 80  80 81  81 82  82 83  83 84  84 85  85 86  86 87  87 88  88 89  89 90  90 91  91 92  92 93  93 94  94 95  95 96  96 97  97 98  98 99  99 100  </DataArray>
<DataArray  type="UInt32"  Name="offsets"  format="ascii">2 4 6 8 10 12 14 16 18 20 22 24 26 28 30 32 34 36 38 40 42 44 46 48 50 52 54 56 58 60 62 64 66 68 70 72 74 76 78 80 82 84 86 88 90 92 94 96 98 100 102 104 106 108 110 112 114 116 118 120 122 124 126 128 130 132 134 136 138 140 142 144 146 148 150 152 154 156 158 160 162 164 166 168 170 172 174 176 178 180 182 184 186 188 190 192 194 196 198 200 </DataArray>
<DataArray  type="UInt8"  Name="types"  format="ascii">3 3 3 3 3 3 3 3 3 3 3 3 3 3 3 3 3 3 3 3 3 3 3 3 3 3 3 3 3 3 3 3 3 3 3 3 3 3 3 3 3 3 3 3 3 3 3 3 3 3 3 3 3 3 3 3 3 3 3 3 3 3 3 3 3 3 3 3 3 3 3 3 3 3 3 3 3 3 3 3 3 3 3 3 3 3 3 3 3 3 3 3 3 3 3 3 3 3 3 3 </DataArray>
</Cells>
<PointData  Scalars="f_16"> 
<DataArray  type="Float64"  Name="f_16"  format="ascii">0.0000000000000000e+00  2.4233031940074233e+22  4.8441987958441958e+22  7.2602817325999365e+22  9.6691519661148167e+22  1.2068417000945292e+23  1.4455694381081461e+23  1.6828614171737923e+23  1.9184821422600543e+23  2.1521978608986051e+23  2.3837768047459569e+23  2.6129894282556281e+23  2.8396086441366310e+23  3.0634100552866297e+23  3.2841721829015182e+23  3.5016766904775259e+23  3.7157086034370903e+23  3.9260565241255090e+23  4.1325128419418011e+23  4.3348739383839378e+23  4.5329403868057341e+23  4.7265171466999718e+23  4.9154137523395912e+23  5.0994444956261104e+23  5.2784286030114369e+23  5.4521904063759910e+23  5.6205595077623826e+23  5.7833709378796913e+23  5.9404653083085072e+23  6.0916889573514005e+23  6.2368940894870660e+23  6.3759389083991567e+23  6.5086877435626523e+23  6.6350111703813599e+23  6.7547861238799944e+23  6.8678960059628559e+23  6.9742307862587639e+23  7.0736870965783562e+23  7.1661683190151188e+23  7.2515846677257986e+23  7.3298532644289290e+23  7.4008982076621888e+23  7.4646506358403838e+23  7.5210487841557782e+23  7.5700380353616171e+23  7.6115709644778651e+23  7.6456073774555626e+23  7.6721143438328984e+23  7.6910662234121018e+23  7.7024446869817546e+23  7.7062387311041162e+23  7.7024446869817493e+23  7.6910662234120938e+23  7.6721143438328863e+23  7.6456073774555479e+23  7.6115709644778476e+23  7.5700380353615969e+23  7.5210487841557554e+23  7.4646506358403610e+23  7.4008982076621619e+23  7.3298532644288981e+23  7.2515846677257650e+23  7.1661683190150799e+23  7.0736870965783160e+23  6.9742307862587196e+23  6.8678960059628076e+23  6.7547861238799434e+23  6.6350111703813076e+23  6.5086877435625973e+23  6.3759389083990990e+23  6.2368940894870003e+23  6.0916889573513307e+23  5.9404653083084333e+23  5.7833709378796168e+23  5.6205595077623114e+23  5.4521904063759192e+23  5.2784286030113665e+23  5.0994444956260433e+23  4.9154137523395241e+23  4.7265171466999061e+23  4.5329403868056731e+23  4.3348739383838767e+23  4.1325128419417441e+23  3.9260565241254574e+23  3.7157086034370406e+23  3.5016766904774816e+23  3.2841721829014799e+23  3.0634100552865962e+23  2.8396086441366005e+23  2.6129894282556033e+23  2.3837768047459348e+23  2.1521978608985853e+23  1.9184821422600399e+23  1.6828614171737798e+23  1.4455694381081355e+23  1.2068417000945230e+23  9.6691519661147580e+22  7.2602817325998878e+22  4.8441987958441865e+22  2.4233031940074186e+22  0.0000000000000000e+00  </DataArray> 
</PointData> 
</Piece>
</UnstructuredGrid>
</VTKFile>