<?xml version="1.0"?>
<VTKFile type="UnstructuredGrid"  version="0.1"  >
<UnstructuredGrid>
<Piece  NumberOfPoints="101" NumberOfCells="100">
<Points>
<DataArray  type="Float64"  NumberOfComponents="3"  format="ascii">0 0 0  3e-08 0 0  6.000000000000001e-08 0 0  9e-08 0 0  1.2e-07 0 0  1.5e-07 0 0  1.8e-07 0 0  2.1e-07 0 0  2.4e-07 0 0  2.7e-07 0 0  3e-07 0 0  3.3e-07 0 0  3.6e-07 0 0  3.9e-07 0 0  4.200000000000001e-07 0 0  4.5e-07 0 0  4.800000000000001e-07 0 0  5.1e-07 0 0  5.4e-07 0 0  5.7e-07 0 0  6e-07 0 0  6.3e-07 0 0  6.6e-07 0 0  6.9e-07 0 0  7.2e-07 0 0  7.5e-07 0 0  7.799999999999999e-07 0 0  8.100000000000001e-07 0 0  8.400000000000001e-07 0 0  8.7e-07 0 0  9.000000000000001e-07 0 0  9.3e-07 0 0  9.600000000000001e-07 0 0  9.900000000000001e-07 0 0  1.02e-06 0 0  1.05e-06 0 0  1.08e-06 0 0  1.11e-06 0 0  1.14e-06 0 0  1.17e-06 0 0  1.2e-06 0 0  1.23e-06 0 0  1.26e-06 0 0  1.29e-06 0 0  1.32e-06 0 0  1.35e-06 0 0  1.38e-06 0 0  1.41e-06 0 0  1.44e-06 0 0  1.47e-06 0 0  1.5e-06 0 0  1.53e-06 0 0  1.56e-06 0 0  1.59e-06 0 0  1.62e-06 0 0  1.65e-06 0 0  1.68e-06 0 0  1.71e-06 0 0  1.74e-06 0 0  1.77e-06 0 0  1.8e-06 0 0  1.83e-06 0 0  1.86e-06 0 0  1.89e-06 0 0  1.92e-06 0 0  1.95e-06 0 0  1.98e-06 0 0  2.01e-06 0 0  2.04e-06 0 0  2.07e-06 0 0  2.1e-06 0 0  2.13e-06 0 0  2.16e-06 0 0  2.19e-06 0 0  2.22e-06 0 0  2.25e-06 0 0  2.28e-06 0 0  2.31e-06 0 0  2.34e-06 0 0  2.37e-06 0 0  2.4e-06 0 0  2.43e-06 0 0  2.46e-06 0 0  2.49e-06 0 0  2.52e-06 0 0  2.55e-06 0 0  2.58e-06 0 0  2.61e-06 0 0  2.64e-06 0 0  2.67e-06 0 0  2.7e-06 0 0  2.73e-06 0 0  2.76e-06 0 0  2.79e-06 0 0  2.82e-06 0 0  2.85e-06 0 0  2.88e-06 0 0  2.91e-06 0 0  2.94e-06 0 0  2.97e-06 0 0  3e-06 0 0  </DataArray>
</Points>
<Cells>
<DataArray  type="UInt32"  Name="connectivity"  format="ascii">0 1  1 2  2 3  3 4  4 5  5 6  6 7  7 8  8 9  9 10  10 11  11 12  12 13  13 14  14 15  15 16  16 17  17 18  18 19  19 20  20 21  21 22  22 23  23 24  24 25  25 26  26 27  27 28  28 29  29 30  30 31  31 32  32 33  33 34  34 35  35 36  36 37  37 38  38 39  39 40  40 41  41 42  42 43  43 44  44 45  45 46  46 47  47 48  48 49  49 50  50 51  51 52  52 53  53 54  54 55  55 56  56 57  57 58  58 59  59 60  60 61  61 62  62 63  63 64  64 65  65 66  66 67  67 68  68 69  69 70  70 71  71 72  72 73  73 74  74 75  75 76  76 77  77 78  78 79  79 80  80 81  81 82  82 83  83 84  84 85  85 86  86 87  87 88  88 89  89 90  90 91  91 92  92 93  93 94  94 95  95 96  96 97  97 98  98 99  99 100  </DataArray>
<DataArray  type="UInt32"  Name="offsets"  format="ascii">2 4 6 8 10 12 14 16 18 20 22 24 26 28 30 32 34 36 38 40 42 44 46 48 50 52 54 56 58 60 62 64 66 68 70 72 74 76 78 80 82 84 86 88 90 92 94 96 98 100 102 104 106 108 110 112 114 116 118 120 122 124 126 128 130 132 134 136 138 140 142 144 146 148 150 152 154 156 158 160 162 164 166 168 170 172 174 176 178 180 182 184 186 188 190 192 194 196 198 200 </DataArray>
<DataArray  type="UInt8"  Name="types"  format="ascii">3 3 3 3 3 3 3 3 3 3 3 3 3 3 3 3 3 3 3 3 3 3 3 3 3 3 3 3 3 3 3 3 3 3 3 3 3 3 3 3 3 3 3 3 3 3 3 3 3 3 3 3 3 3 3 3 3 3 3 3 3 3 3 3 3 3 3 3 3 3 3 3 3 3 3 3 3 3 3 3 3 3 3 3 3 3 3 3 3 3 3 3 3 3 3 3 3 3 3 3 </DataArray>
</Cells>
<PointData  Scalars="f_16"> 
<DataArray  type="Float64"  Name="f_16"  format="ascii">0.0000000000000000e+00  5.1730890001868040e+22  1.0339314239658483e+23  1.5491838202073263e+23  2.0623875509466458e+23  2.5728718129758416e+23  3.0799759587546258e+23  3.5830517902000447e+23  4.0814657014655992e+23  4.5746006511231216e+23  5.0618579483373759e+23  5.5426588416970593e+23  6.0164459032315242e+23  6.4826842037276049e+23  6.9408622787186565e+23  7.3904928874222334e+23  7.8311135694433024e+23  8.2622870062384662e+23  8.6836011961643969e+23  9.0946694534279189e+23  9.4951302424383440e+23  9.8846468599596779e+23  1.0262906978097796e+24  1.0629622061563360e+24  1.0984526672851837e+24  1.1327377679004298e+24  1.1657953373481854e+24  1.1976052526426372e+24  1.2281493376212582e+24  1.2574112574742225e+24  1.2853764098407642e+24  1.3120318136076758e+24  1.3373659964838474e+24  1.3613688823609651e+24  1.3840316794053416e+24  1.4053467697602856e+24  1.4253076016732220e+24  1.4439085847976115e+24  1.4611449893571179e+24  1.4770128497988172e+24  1.4915088735038869e+24  1.5046303550682828e+24  1.5163750966126130e+24  1.5267413345297214e+24  1.5357276730304106e+24  1.5433330248021701e+24  1.5495565590525872e+24  1.5543976571681257e+24  1.5578558761799482e+24  1.5599309201911703e+24  1.5606226198840798e+24  1.5599309201911697e+24  1.5578558761799474e+24  1.5543976571681244e+24  1.5495565590525856e+24  1.5433330248021680e+24  1.5357276730304079e+24  1.5267413345297188e+24  1.5163750966126106e+24  1.5046303550682796e+24  1.4915088735038829e+24  1.4770128497988124e+24  1.4611449893571123e+24  1.4439085847976058e+24  1.4253076016732153e+24  1.4053467697602786e+24  1.3840316794053340e+24  1.3613688823609573e+24  1.3373659964838393e+24  1.3120318136076669e+24  1.2853764098407540e+24  1.2574112574742115e+24  1.2281493376212461e+24  1.1976052526426251e+24  1.1657953373481738e+24  1.1327377679004180e+24  1.0984526672851723e+24  1.0629622061563251e+24  1.0262906978097686e+24  9.8846468599595732e+23  9.4951302424382474e+23  9.0946694534278236e+23  8.6836011961643083e+23  8.2622870062383870e+23  7.8311135694432258e+23  7.3904928874221663e+23  6.9408622787186002e+23  6.4826842037275552e+23  6.0164459032314806e+23  5.5426588416970258e+23  5.0618579483373464e+23  4.5746006511230961e+23  4.0814657014655831e+23  3.5830517902000306e+23  3.0799759587546144e+23  2.5728718129758375e+23  2.0623875509466415e+23  1.5491838202073216e+23  1.0339314239658500e+23  5.1730890001868141e+22  0.0000000000000000e+00  </DataArray> 
</PointData> 
</Piece>
</UnstructuredGrid>
</VTKFile>