<?xml version="1.0"?>
<VTKFile type="UnstructuredGrid"  version="0.1"  >
<UnstructuredGrid>
<Piece  NumberOfPoints="101" NumberOfCells="100">
<Points>
<DataArray  type="Float64"  NumberOfComponents="3"  format="ascii">0 0 0  3e-08 0 0  6.000000000000001e-08 0 0  9e-08 0 0  1.2e-07 0 0  1.5e-07 0 0  1.8e-07 0 0  2.1e-07 0 0  2.4e-07 0 0  2.7e-07 0 0  3e-07 0 0  3.3e-07 0 0  3.6e-07 0 0  3.9e-07 0 0  4.200000000000001e-07 0 0  4.5e-07 0 0  4.800000000000001e-07 0 0  5.1e-07 0 0  5.4e-07 0 0  5.7e-07 0 0  6e-07 0 0  6.3e-07 0 0  6.6e-07 0 0  6.9e-07 0 0  7.2e-07 0 0  7.5e-07 0 0  7.799999999999999e-07 0 0  8.100000000000001e-07 0 0  8.400000000000001e-07 0 0  8.7e-07 0 0  9.000000000000001e-07 0 0  9.3e-07 0 0  9.600000000000001e-07 0 0  9.900000000000001e-07 0 0  1.02e-06 0 0  1.05e-06 0 0  1.08e-06 0 0  1.11e-06 0 0  1.14e-06 0 0  1.17e-06 0 0  1.2e-06 0 0  1.23e-06 0 0  1.26e-06 0 0  1.29e-06 0 0  1.32e-06 0 0  1.35e-06 0 0  1.38e-06 0 0  1.41e-06 0 0  1.44e-06 0 0  1.47e-06 0 0  1.5e-06 0 0  1.53e-06 0 0  1.56e-06 0 0  1.59e-06 0 0  1.62e-06 0 0  1.65e-06 0 0  1.68e-06 0 0  1.71e-06 0 0  1.74e-06 0 0  1.77e-06 0 0  1.8e-06 0 0  1.83e-06 0 0  1.86e-06 0 0  1.89e-06 0 0  1.92e-06 0 0  1.95e-06 0 0  1.98e-06 0 0  2.01e-06 0 0  2.04e-06 0 0  2.07e-06 0 0  2.1e-06 0 0  2.13e-06 0 0  2.16e-06 0 0  2.19e-06 0 0  2.22e-06 0 0  2.25e-06 0 0  2.28e-06 0 0  2.31e-06 0 0  2.34e-06 0 0  2.37e-06 0 0  2.4e-06 0 0  2.43e-06 0 0  2.46e-06 0 0  2.49e-06 0 0  2.52e-06 0 0  2.55e-06 0 0  2.58e-06 0 0  2.61e-06 0 0  2.64e-06 0 0  2.67e-06 0 0  2.7e-06 0 0  2.73e-06 0 0  2.76e-06 0 0  2.79e-06 0 0  2.82e-06 0 0  2.85e-06 0 0  2.88e-06 0 0  2.91e-06 0 0  2.94e-06 0 0  2.97e-06 0 0  3e-06 0 0  </DataArray>
</Points>
<Cells>
<DataArray  type="UInt32"  Name="connectivity"  format="ascii">0 1  1 2  2 3  3 4  4 5  5 6  6 7  7 8  8 9  9 10  10 11  11 12  12 13  13 14  14 15  15 16  16 17  17 18  18 19  19 20  20 21  21 22  22 23  23 24  24 25  25 26  26 27  27 28  28 29  29 30  30 31  31 32  32 33  33 34  34 35  35 36  36 37  37 38  38 39  39 40  40 41  41 42  42 43  43 44  44 45  45 46  46 47  47 48  48 49  49 50  50 51  51 52  52 53  53 54  54 55  55 56  56 57  57 58  58 59  59 60  60 61  61 62  62 63  63 64  64 65  65 66  66 67  67 68  68 69  69 70  70 71  71 72  72 73  73 74  74 75  75 76  76 77  77 78  78 79  79 80  80 81  81 82  82 83  83 84  84 85  85 86  86 87  87 88  88 89  89 90  90 91  91 92  92 93  93 94  94 95  95 96  96 97  97 98  98 99  99 100  </DataArray>
<DataArray  type="UInt32"  Name="offsets"  format="ascii">2 4 6 8 10 12 14 16 18 20 22 24 26 28 30 32 34 36 38 40 42 44 46 48 50 52 54 56 58 60 62 64 66 68 70 72 74 76 78 80 82 84 86 88 90 92 94 96 98 100 102 104 106 108 110 112 114 116 118 120 122 124 126 128 130 132 134 136 138 140 142 144 146 148 150 152 154 156 158 160 162 164 166 168 170 172 174 176 178 180 182 184 186 188 190 192 194 196 198 200 </DataArray>
<DataArray  type="UInt8"  Name="types"  format="ascii">3 3 3 3 3 3 3 3 3 3 3 3 3 3 3 3 3 3 3 3 3 3 3 3 3 3 3 3 3 3 3 3 3 3 3 3 3 3 3 3 3 3 3 3 3 3 3 3 3 3 3 3 3 3 3 3 3 3 3 3 3 3 3 3 3 3 3 3 3 3 3 3 3 3 3 3 3 3 3 3 3 3 3 3 3 3 3 3 3 3 3 3 3 3 3 3 3 3 3 3 </DataArray>
</Cells>
<PointData  Scalars="f_16"> 
<DataArray  type="Float64"  Name="f_16"  format="ascii">0.0000000000000000e+00  1.1803240409238465e+22  2.3594830800290547e+22  3.5363132666732658e+22  4.7096530514176475e+22  5.8783443337573137e+22  7.0412336064096486e+22  8.1971730950189541e+22  9.3450218921408713e+22  1.0483647084376178e+23  1.1611924871531012e+23  1.2728741676689186e+23  1.3832995246092025e+23  1.4923595737732207e+23  1.5999466797580156e+23  1.7059546622374778e+23  1.8102789007924821e+23  1.9128164381882369e+23  2.0134660819966769e+23  2.1121285044634552e+23  2.2087063405209613e+23  2.3031042838507478e+23  2.3952291809007779e+23  2.4849901227650536e+23  2.5722985348354170e+23  2.6570682641376101e+23  2.7392156642660890e+23  2.8186596778345508e+23  2.8953219163616679e+23  2.9691267375141666e+23  3.0400013196320508e+23  3.1078757334635236e+23  3.1726830110399964e+23  3.2343592116243967e+23  3.2928434846689837e+23  3.3480781297217802e+23  3.4000086532238200e+23  3.4485838221424410e+23  3.4937557143889864e+23  3.5354797659724342e+23  3.5737148148436507e+23  3.6084231413882087e+23  3.6395705055289388e+23  3.6671261804027005e+23  3.6910629825791341e+23  3.7113572987925153e+23  3.7279891091611653e+23  3.7409420068722518e+23  3.7502032143131899e+23  3.7557635956342724e+23  3.7576176657305275e+23  3.7557635956342690e+23  3.7502032143131858e+23  3.7409420068722450e+23  3.7279891091611586e+23  3.7113572987925072e+23  3.6910629825791247e+23  3.6671261804026904e+23  3.6395705055289281e+23  3.6084231413881966e+23  3.5737148148436359e+23  3.5354797659724168e+23  3.4937557143889670e+23  3.4485838221424196e+23  3.4000086532237972e+23  3.3480781297217560e+23  3.2928434846689582e+23  3.2343592116243692e+23  3.1726830110399682e+23  3.1078757334634934e+23  3.0400013196320165e+23  2.9691267375141310e+23  2.8953219163616303e+23  2.8186596778345129e+23  2.7392156642660524e+23  2.6570682641375732e+23  2.5722985348353808e+23  2.4849901227650194e+23  2.3952291809007434e+23  2.3031042838507139e+23  2.2087063405209290e+23  2.1121285044634237e+23  2.0134660819966474e+23  1.9128164381882101e+23  1.8102789007924566e+23  1.7059546622374550e+23  1.5999466797579961e+23  1.4923595737732034e+23  1.3832995246091869e+23  1.2728741676689062e+23  1.1611924871530900e+23  1.0483647084376080e+23  9.3450218921408009e+22  8.1971730950188920e+22  7.0412336064095949e+22  5.8783443337572818e+22  4.7096530514176182e+22  3.5363132666732419e+22  2.3594830800290497e+22  1.1803240409238438e+22  0.0000000000000000e+00  </DataArray> 
</PointData> 
</Piece>
</UnstructuredGrid>
</VTKFile>