<?xml version="1.0"?>
<VTKFile type="UnstructuredGrid"  version="0.1"  >
<UnstructuredGrid>
<Piece  NumberOfPoints="101" NumberOfCells="100">
<Points>
<DataArray  type="Float64"  NumberOfComponents="3"  format="ascii">0 0 0  3e-08 0 0  6.000000000000001e-08 0 0  9e-08 0 0  1.2e-07 0 0  1.5e-07 0 0  1.8e-07 0 0  2.1e-07 0 0  2.4e-07 0 0  2.7e-07 0 0  3e-07 0 0  3.3e-07 0 0  3.6e-07 0 0  3.9e-07 0 0  4.200000000000001e-07 0 0  4.5e-07 0 0  4.800000000000001e-07 0 0  5.1e-07 0 0  5.4e-07 0 0  5.7e-07 0 0  6e-07 0 0  6.3e-07 0 0  6.6e-07 0 0  6.9e-07 0 0  7.2e-07 0 0  7.5e-07 0 0  7.799999999999999e-07 0 0  8.100000000000001e-07 0 0  8.400000000000001e-07 0 0  8.7e-07 0 0  9.000000000000001e-07 0 0  9.3e-07 0 0  9.600000000000001e-07 0 0  9.900000000000001e-07 0 0  1.02e-06 0 0  1.05e-06 0 0  1.08e-06 0 0  1.11e-06 0 0  1.14e-06 0 0  1.17e-06 0 0  1.2e-06 0 0  1.23e-06 0 0  1.26e-06 0 0  1.29e-06 0 0  1.32e-06 0 0  1.35e-06 0 0  1.38e-06 0 0  1.41e-06 0 0  1.44e-06 0 0  1.47e-06 0 0  1.5e-06 0 0  1.53e-06 0 0  1.56e-06 0 0  1.59e-06 0 0  1.62e-06 0 0  1.65e-06 0 0  1.68e-06 0 0  1.71e-06 0 0  1.74e-06 0 0  1.77e-06 0 0  1.8e-06 0 0  1.83e-06 0 0  1.86e-06 0 0  1.89e-06 0 0  1.92e-06 0 0  1.95e-06 0 0  1.98e-06 0 0  2.01e-06 0 0  2.04e-06 0 0  2.07e-06 0 0  2.1e-06 0 0  2.13e-06 0 0  2.16e-06 0 0  2.19e-06 0 0  2.22e-06 0 0  2.25e-06 0 0  2.28e-06 0 0  2.31e-06 0 0  2.34e-06 0 0  2.37e-06 0 0  2.4e-06 0 0  2.43e-06 0 0  2.46e-06 0 0  2.49e-06 0 0  2.52e-06 0 0  2.55e-06 0 0  2.58e-06 0 0  2.61e-06 0 0  2.64e-06 0 0  2.67e-06 0 0  2.7e-06 0 0  2.73e-06 0 0  2.76e-06 0 0  2.79e-06 0 0  2.82e-06 0 0  2.85e-06 0 0  2.88e-06 0 0  2.91e-06 0 0  2.94e-06 0 0  2.97e-06 0 0  3e-06 0 0  </DataArray>
</Points>
<Cells>
<DataArray  type="UInt32"  Name="connectivity"  format="ascii">0 1  1 2  2 3  3 4  4 5  5 6  6 7  7 8  8 9  9 10  10 11  11 12  12 13  13 14  14 15  15 16  16 17  17 18  18 19  19 20  20 21  21 22  22 23  23 24  24 25  25 26  26 27  27 28  28 29  29 30  30 31  31 32  32 33  33 34  34 35  35 36  36 37  37 38  38 39  39 40  40 41  41 42  42 43  43 44  44 45  45 46  46 47  47 48  48 49  49 50  50 51  51 52  52 53  53 54  54 55  55 56  56 57  57 58  58 59  59 60  60 61  61 62  62 63  63 64  64 65  65 66  66 67  67 68  68 69  69 70  70 71  71 72  72 73  73 74  74 75  75 76  76 77  77 78  78 79  79 80  80 81  81 82  82 83  83 84  84 85  85 86  86 87  87 88  88 89  89 90  90 91  91 92  92 93  93 94  94 95  95 96  96 97  97 98  98 99  99 100  </DataArray>
<DataArray  type="UInt32"  Name="offsets"  format="ascii">2 4 6 8 10 12 14 16 18 20 22 24 26 28 30 32 34 36 38 40 42 44 46 48 50 52 54 56 58 60 62 64 66 68 70 72 74 76 78 80 82 84 86 88 90 92 94 96 98 100 102 104 106 108 110 112 114 116 118 120 122 124 126 128 130 132 134 136 138 140 142 144 146 148 150 152 154 156 158 160 162 164 166 168 170 172 174 176 178 180 182 184 186 188 190 192 194 196 198 200 </DataArray>
<DataArray  type="UInt8"  Name="types"  format="ascii">3 3 3 3 3 3 3 3 3 3 3 3 3 3 3 3 3 3 3 3 3 3 3 3 3 3 3 3 3 3 3 3 3 3 3 3 3 3 3 3 3 3 3 3 3 3 3 3 3 3 3 3 3 3 3 3 3 3 3 3 3 3 3 3 3 3 3 3 3 3 3 3 3 3 3 3 3 3 3 3 3 3 3 3 3 3 3 3 3 3 3 3 3 3 3 3 3 3 3 3 </DataArray>
</Cells>
<PointData  Scalars="f_16"> 
<DataArray  type="Float64"  Name="f_16"  format="ascii">0.0000000000000000e+00  1.2129365641025600e+21  2.4246761062551325e+21  3.6340227858238837e+21  4.8397831236414708e+21  6.0407671798268974e+21  7.2357897281125178e+21  8.4236714255192791e+21  9.6032399762258584e+21  1.0773331288483118e+22  1.1932790623432121e+22  1.3080473734691986e+22  1.4215247997592901e+22  1.5335993526939950e+22  1.6441604282204608e+22  1.7530989159053181e+22  1.8603073066135087e+22  1.9656797986068193e+22  2.0691124019574270e+22  2.1705030411734015e+22  2.2697516559348894e+22  2.3667602998415749e+22  2.4614332370739463e+22  2.5536770368729933e+22  2.6434006657450874e+22  2.7305155773010455e+22  2.8149357996407276e+22  2.8965780201969235e+22  2.9753616679547945e+22  3.0512089929657382e+22  3.1240451430772011e+22  3.1937982378027166e+22  3.2603994392592646e+22  3.3237830201019485e+22  3.3838864283889522e+22  3.4406503493127511e+22  3.4940187637366651e+22  3.5439390034789868e+22  3.5903618032901126e+22  3.6332413494713972e+22  3.6725353250877442e+22  3.7082049517293081e+22  3.7402150277811039e+22  3.7685339631627515e+22  3.7931338105040700e+22  3.8139902927257544e+22  3.8310828269979281e+22  3.8443945450529050e+22  3.8539123098321336e+22  3.8596267284508925e+22  3.8615321614679229e+22  3.8596267284508891e+22  3.8539123098321294e+22  3.8443945450528982e+22  3.8310828269979205e+22  3.8139902927257452e+22  3.7931338105040591e+22  3.7685339631627411e+22  3.7402150277810921e+22  3.7082049517292947e+22  3.6725353250877287e+22  3.6332413494713800e+22  3.5903618032900925e+22  3.5439390034789650e+22  3.4940187637366420e+22  3.4406503493127264e+22  3.3838864283889262e+22  3.3237830201019212e+22  3.2603994392592357e+22  3.1937982378026855e+22  3.1240451430771667e+22  3.0512089929657008e+22  2.9753616679547550e+22  2.8965780201968836e+22  2.8149357996406890e+22  2.7305155773010064e+22  2.6434006657450497e+22  2.5536770368729577e+22  2.4614332370739102e+22  2.3667602998415396e+22  2.2697516559348567e+22  2.1705030411733688e+22  2.0691124019573968e+22  1.9656797986067917e+22  1.8603073066134820e+22  1.7530989159052940e+22  1.6441604282204400e+22  1.5335993526939762e+22  1.4215247997592729e+22  1.3080473734691848e+22  1.1932790623431998e+22  1.0773331288483009e+22  9.6032399762257766e+21  8.4236714255192068e+21  7.2357897281124560e+21  6.0407671798268596e+21  4.8397831236414373e+21  3.6340227858238559e+21  2.4246761062551252e+21  1.2129365641025565e+21  0.0000000000000000e+00  </DataArray> 
</PointData> 
</Piece>
</UnstructuredGrid>
</VTKFile>