<?xml version="1.0"?>
<VTKFile type="UnstructuredGrid"  version="0.1"  >
<UnstructuredGrid>
<Piece  NumberOfPoints="101" NumberOfCells="100">
<Points>
<DataArray  type="Float64"  NumberOfComponents="3"  format="ascii">0 0 0  3e-08 0 0  6.000000000000001e-08 0 0  9e-08 0 0  1.2e-07 0 0  1.5e-07 0 0  1.8e-07 0 0  2.1e-07 0 0  2.4e-07 0 0  2.7e-07 0 0  3e-07 0 0  3.3e-07 0 0  3.6e-07 0 0  3.9e-07 0 0  4.200000000000001e-07 0 0  4.5e-07 0 0  4.800000000000001e-07 0 0  5.1e-07 0 0  5.4e-07 0 0  5.7e-07 0 0  6e-07 0 0  6.3e-07 0 0  6.6e-07 0 0  6.9e-07 0 0  7.2e-07 0 0  7.5e-07 0 0  7.799999999999999e-07 0 0  8.100000000000001e-07 0 0  8.400000000000001e-07 0 0  8.7e-07 0 0  9.000000000000001e-07 0 0  9.3e-07 0 0  9.600000000000001e-07 0 0  9.900000000000001e-07 0 0  1.02e-06 0 0  1.05e-06 0 0  1.08e-06 0 0  1.11e-06 0 0  1.14e-06 0 0  1.17e-06 0 0  1.2e-06 0 0  1.23e-06 0 0  1.26e-06 0 0  1.29e-06 0 0  1.32e-06 0 0  1.35e-06 0 0  1.38e-06 0 0  1.41e-06 0 0  1.44e-06 0 0  1.47e-06 0 0  1.5e-06 0 0  1.53e-06 0 0  1.56e-06 0 0  1.59e-06 0 0  1.62e-06 0 0  1.65e-06 0 0  1.68e-06 0 0  1.71e-06 0 0  1.74e-06 0 0  1.77e-06 0 0  1.8e-06 0 0  1.83e-06 0 0  1.86e-06 0 0  1.89e-06 0 0  1.92e-06 0 0  1.95e-06 0 0  1.98e-06 0 0  2.01e-06 0 0  2.04e-06 0 0  2.07e-06 0 0  2.1e-06 0 0  2.13e-06 0 0  2.16e-06 0 0  2.19e-06 0 0  2.22e-06 0 0  2.25e-06 0 0  2.28e-06 0 0  2.31e-06 0 0  2.34e-06 0 0  2.37e-06 0 0  2.4e-06 0 0  2.43e-06 0 0  2.46e-06 0 0  2.49e-06 0 0  2.52e-06 0 0  2.55e-06 0 0  2.58e-06 0 0  2.61e-06 0 0  2.64e-06 0 0  2.67e-06 0 0  2.7e-06 0 0  2.73e-06 0 0  2.76e-06 0 0  2.79e-06 0 0  2.82e-06 0 0  2.85e-06 0 0  2.88e-06 0 0  2.91e-06 0 0  2.94e-06 0 0  2.97e-06 0 0  3e-06 0 0  </DataArray>
</Points>
<Cells>
<DataArray  type="UInt32"  Name="connectivity"  format="ascii">0 1  1 2  2 3  3 4  4 5  5 6  6 7  7 8  8 9  9 10  10 11  11 12  12 13  13 14  14 15  15 16  16 17  17 18  18 19  19 20  20 21  21 22  22 23  23 24  24 25  25 26  26 27  27 28  28 29  29 30  30 31  31 32  32 33  33 34  34 35  35 36  36 37  37 38  38 39  39 40  40 41  41 42  42 43  43 44  44 45  45 46  46 47  47 48  48 49  49 50  50 51  51 52  52 53  53 54  54 55  55 56  56 57  57 58  58 59  59 60  60 61  61 62  62 63  63 64  64 65  65 66  66 67  67 68  68 69  69 70  70 71  71 72  72 73  73 74  74 75  75 76  76 77  77 78  78 79  79 80  80 81  81 82  82 83  83 84  84 85  85 86  86 87  87 88  88 89  89 90  90 91  91 92  92 93  93 94  94 95  95 96  96 97  97 98  98 99  99 100  </DataArray>
<DataArray  type="UInt32"  Name="offsets"  format="ascii">2 4 6 8 10 12 14 16 18 20 22 24 26 28 30 32 34 36 38 40 42 44 46 48 50 52 54 56 58 60 62 64 66 68 70 72 74 76 78 80 82 84 86 88 90 92 94 96 98 100 102 104 106 108 110 112 114 116 118 120 122 124 126 128 130 132 134 136 138 140 142 144 146 148 150 152 154 156 158 160 162 164 166 168 170 172 174 176 178 180 182 184 186 188 190 192 194 196 198 200 </DataArray>
<DataArray  type="UInt8"  Name="types"  format="ascii">3 3 3 3 3 3 3 3 3 3 3 3 3 3 3 3 3 3 3 3 3 3 3 3 3 3 3 3 3 3 3 3 3 3 3 3 3 3 3 3 3 3 3 3 3 3 3 3 3 3 3 3 3 3 3 3 3 3 3 3 3 3 3 3 3 3 3 3 3 3 3 3 3 3 3 3 3 3 3 3 3 3 3 3 3 3 3 3 3 3 3 3 3 3 3 3 3 3 3 3 </DataArray>
</Cells>
<PointData  Scalars="f_16"> 
<DataArray  type="Float64"  Name="f_16"  format="ascii">0.0000000000000000e+00  3.0859069353865186e+22  6.1686939933250807e+22  9.2452450450316919e+22  1.2312451449181340e+23  1.5367215771035598e+23  1.8406455472244481e+23  2.1427106561872519e+23  2.4426127199473101e+23  2.7400501241372270e+23  3.0347241721719168e+23  3.3263394260311642e+23  3.6146040389706795e+23  3.8992300794672635e+23  4.1799338457622390e+23  4.4564361704292057e+23  4.7284627144568014e+23  4.9957442504038018e+23  5.2580169342520788e+23  5.5150225656518349e+23  5.7665088363226595e+23  6.0122295664426356e+23  6.2519449289252917e+23  6.4854216615502236e+23  6.7124332669770526e+23  6.9327602007335095e+23  7.1461900473264914e+23  7.3525176846793924e+23  7.5515454371494688e+23  7.7430832174253165e+23  7.9269486576461057e+23  8.1029672301210459e+23  8.2709723580594233e+23  8.4308055167481547e+23  8.5823163256352586e+23  8.7253626317936424e+23  8.8598105852504851e+23  8.9855347066728919e+23  9.1024179479008176e+23  9.2103517458134518e+23  9.3092360700054987e+23  9.3989794647352901e+23  9.4794990855876747e+23  9.5507207312713131e+23  9.6125788709427282e+23  9.6650166674184965e+23  9.7079859966026209e+23  9.7414474634187712e+23  9.7653704144970806e+23  9.7797329478229575e+23  9.7845219195111736e+23  9.7797329478229521e+23  9.7653704144970713e+23  9.7414474634187578e+23  9.7079859966026062e+23  9.6650166674184778e+23  9.6125788709427068e+23  9.5507207312712916e+23  9.4794990855876519e+23  9.3989794647352646e+23  9.3092360700054678e+23  9.2103517458134169e+23  9.1024179479007760e+23  8.9855347066728450e+23  8.8598105852504341e+23  8.7253626317935887e+23  8.5823163256352008e+23  8.4308055167480943e+23  8.2709723580593575e+23  8.1029672301209747e+23  7.9269486576460265e+23  7.7430832174252319e+23  7.5515454371493762e+23  7.3525176846792998e+23  7.1461900473264028e+23  6.9327602007334183e+23  6.7124332669769626e+23  6.4854216615501377e+23  6.2519449289252071e+23  6.0122295664425537e+23  5.7665088363225830e+23  5.5150225656517604e+23  5.2580169342520097e+23  4.9957442504037401e+23  4.7284627144567423e+23  4.4564361704291520e+23  4.1799338457621933e+23  3.8992300794672233e+23  3.6146040389706432e+23  3.3263394260311353e+23  3.0347241721718913e+23  2.7400501241372042e+23  2.4426127199472933e+23  2.1427106561872374e+23  1.8406455472244357e+23  1.5367215771035525e+23  1.2312451449181275e+23  9.2452450450316332e+22  6.1686939933250706e+22  3.0859069353865140e+22  0.0000000000000000e+00  </DataArray> 
</PointData> 
</Piece>
</UnstructuredGrid>
</VTKFile>