<?xml version="1.0"?>
<VTKFile type="UnstructuredGrid"  version="0.1"  >
<UnstructuredGrid>
<Piece  NumberOfPoints="101" NumberOfCells="100">
<Points>
<DataArray  type="Float64"  NumberOfComponents="3"  format="ascii">0 0 0  3e-08 0 0  6.000000000000001e-08 0 0  9e-08 0 0  1.2e-07 0 0  1.5e-07 0 0  1.8e-07 0 0  2.1e-07 0 0  2.4e-07 0 0  2.7e-07 0 0  3e-07 0 0  3.3e-07 0 0  3.6e-07 0 0  3.9e-07 0 0  4.200000000000001e-07 0 0  4.5e-07 0 0  4.800000000000001e-07 0 0  5.1e-07 0 0  5.4e-07 0 0  5.7e-07 0 0  6e-07 0 0  6.3e-07 0 0  6.6e-07 0 0  6.9e-07 0 0  7.2e-07 0 0  7.5e-07 0 0  7.799999999999999e-07 0 0  8.100000000000001e-07 0 0  8.400000000000001e-07 0 0  8.7e-07 0 0  9.000000000000001e-07 0 0  9.3e-07 0 0  9.600000000000001e-07 0 0  9.900000000000001e-07 0 0  1.02e-06 0 0  1.05e-06 0 0  1.08e-06 0 0  1.11e-06 0 0  1.14e-06 0 0  1.17e-06 0 0  1.2e-06 0 0  1.23e-06 0 0  1.26e-06 0 0  1.29e-06 0 0  1.32e-06 0 0  1.35e-06 0 0  1.38e-06 0 0  1.41e-06 0 0  1.44e-06 0 0  1.47e-06 0 0  1.5e-06 0 0  1.53e-06 0 0  1.56e-06 0 0  1.59e-06 0 0  1.62e-06 0 0  1.65e-06 0 0  1.68e-06 0 0  1.71e-06 0 0  1.74e-06 0 0  1.77e-06 0 0  1.8e-06 0 0  1.83e-06 0 0  1.86e-06 0 0  1.89e-06 0 0  1.92e-06 0 0  1.95e-06 0 0  1.98e-06 0 0  2.01e-06 0 0  2.04e-06 0 0  2.07e-06 0 0  2.1e-06 0 0  2.13e-06 0 0  2.16e-06 0 0  2.19e-06 0 0  2.22e-06 0 0  2.25e-06 0 0  2.28e-06 0 0  2.31e-06 0 0  2.34e-06 0 0  2.37e-06 0 0  2.4e-06 0 0  2.43e-06 0 0  2.46e-06 0 0  2.49e-06 0 0  2.52e-06 0 0  2.55e-06 0 0  2.58e-06 0 0  2.61e-06 0 0  2.64e-06 0 0  2.67e-06 0 0  2.7e-06 0 0  2.73e-06 0 0  2.76e-06 0 0  2.79e-06 0 0  2.82e-06 0 0  2.85e-06 0 0  2.88e-06 0 0  2.91e-06 0 0  2.94e-06 0 0  2.97e-06 0 0  3e-06 0 0  </DataArray>
</Points>
<Cells>
<DataArray  type="UInt32"  Name="connectivity"  format="ascii">0 1  1 2  2 3  3 4  4 5  5 6  6 7  7 8  8 9  9 10  10 11  11 12  12 13  13 14  14 15  15 16  16 17  17 18  18 19  19 20  20 21  21 22  22 23  23 24  24 25  25 26  26 27  27 28  28 29  29 30  30 31  31 32  32 33  33 34  34 35  35 36  36 37  37 38  38 39  39 40  40 41  41 42  42 43  43 44  44 45  45 46  46 47  47 48  48 49  49 50  50 51  51 52  52 53  53 54  54 55  55 56  56 57  57 58  58 59  59 60  60 61  61 62  62 63  63 64  64 65  65 66  66 67  67 68  68 69  69 70  70 71  71 72  72 73  73 74  74 75  75 76  76 77  77 78  78 79  79 80  80 81  81 82  82 83  83 84  84 85  85 86  86 87  87 88  88 89  89 90  90 91  91 92  92 93  93 94  94 95  95 96  96 97  97 98  98 99  99 100  </DataArray>
<DataArray  type="UInt32"  Name="offsets"  format="ascii">2 4 6 8 10 12 14 16 18 20 22 24 26 28 30 32 34 36 38 40 42 44 46 48 50 52 54 56 58 60 62 64 66 68 70 72 74 76 78 80 82 84 86 88 90 92 94 96 98 100 102 104 106 108 110 112 114 116 118 120 122 124 126 128 130 132 134 136 138 140 142 144 146 148 150 152 154 156 158 160 162 164 166 168 170 172 174 176 178 180 182 184 186 188 190 192 194 196 198 200 </DataArray>
<DataArray  type="UInt8"  Name="types"  format="ascii">3 3 3 3 3 3 3 3 3 3 3 3 3 3 3 3 3 3 3 3 3 3 3 3 3 3 3 3 3 3 3 3 3 3 3 3 3 3 3 3 3 3 3 3 3 3 3 3 3 3 3 3 3 3 3 3 3 3 3 3 3 3 3 3 3 3 3 3 3 3 3 3 3 3 3 3 3 3 3 3 3 3 3 3 3 3 3 3 3 3 3 3 3 3 3 3 3 3 3 3 </DataArray>
</Cells>
<PointData  Scalars="f_16"> 
<DataArray  type="Float64"  Name="f_16"  format="ascii">0.0000000000000000e+00  9.5460063818308924e+20  1.9082592007864448e+21  2.8600345419451927e+21  3.8089873743066652e+21  4.7541811959936152e+21  5.6946832148185093e+21  6.6295652688367945e+21  7.5579047423306870e+21  8.4787854763194969e+21  9.3912986726979265e+21  1.0294543791110096e+22  1.1187629437674135e+22  1.2069674244680341e+22  1.2939807740394690e+22  1.3797171208109341e+22  1.4640918533592381e+22  1.5470217040100376e+22  1.6284248310129826e+22  1.7082208993096413e+22  1.7863311598145036e+22  1.8626785271308224e+22  1.9371876556245924e+22  2.0097850137815934e+22  2.0803989567741203e+22  2.1489597971657740e+22  2.2153998736845502e+22  2.2796536179963470e+22  2.3416576194129905e+22  2.4013506874709308e+22  2.4586739123188429e+22  2.5135707228545359e+22  2.5659869425538014e+22  2.6158708429361007e+22  2.6631731946143307e+22  2.7078473158782850e+22  2.7498491187638647e+22  2.7891371525625793e+22  2.8256726447283889e+22  2.8594195391415247e+22  2.8903445316915297e+22  2.9184171031443915e+22  2.9436095492613424e+22  2.9658970081395992e+22  2.9852574847480585e+22  3.0016718726337355e+22  3.0151239727775299e+22  3.0256005095806982e+22  3.0330911439662698e+22  3.0375884835824658e+22  3.0390880900980570e+22  3.0375884835824637e+22  3.0330911439662657e+22  3.0256005095806923e+22  3.0151239727775228e+22  3.0016718726337275e+22  2.9852574847480497e+22  2.9658970081395900e+22  2.9436095492613323e+22  2.9184171031443806e+22  2.8903445316915171e+22  2.8594195391415109e+22  2.8256726447283730e+22  2.7891371525625625e+22  2.7498491187638462e+22  2.7078473158782649e+22  2.6631731946143097e+22  2.6158708429360785e+22  2.5659869425537779e+22  2.5135707228545107e+22  2.4586739123188153e+22  2.4013506874709018e+22  2.3416576194129590e+22  2.2796536179963151e+22  2.2153998736845192e+22  2.1489597971657426e+22  2.0803989567740892e+22  2.0097850137815640e+22  1.9371876556245630e+22  1.8626785271307940e+22  1.7863311598144769e+22  1.7082208993096151e+22  1.6284248310129581e+22  1.5470217040100155e+22  1.4640918533592171e+22  1.3797171208109154e+22  1.2939807740394526e+22  1.2069674244680192e+22  1.1187629437674003e+22  1.0294543791109989e+22  9.3912986726978290e+21  8.4787854763194099e+21  7.5579047423306231e+21  6.6295652688367379e+21  5.6946832148184600e+21  4.7541811959935858e+21  3.8089873743066384e+21  2.8600345419451702e+21  1.9082592007864388e+21  9.5460063818308623e+20  0.0000000000000000e+00  </DataArray> 
</PointData> 
</Piece>
</UnstructuredGrid>
</VTKFile>