<?xml version="1.0"?>
<VTKFile type="UnstructuredGrid"  version="0.1"  >
<UnstructuredGrid>
<Piece  NumberOfPoints="101" NumberOfCells="100">
<Points>
<DataArray  type="Float64"  NumberOfComponents="3"  format="ascii">0 0 0  3e-08 0 0  6.000000000000001e-08 0 0  9e-08 0 0  1.2e-07 0 0  1.5e-07 0 0  1.8e-07 0 0  2.1e-07 0 0  2.4e-07 0 0  2.7e-07 0 0  3e-07 0 0  3.3e-07 0 0  3.6e-07 0 0  3.9e-07 0 0  4.200000000000001e-07 0 0  4.5e-07 0 0  4.800000000000001e-07 0 0  5.1e-07 0 0  5.4e-07 0 0  5.7e-07 0 0  6e-07 0 0  6.3e-07 0 0  6.6e-07 0 0  6.9e-07 0 0  7.2e-07 0 0  7.5e-07 0 0  7.799999999999999e-07 0 0  8.100000000000001e-07 0 0  8.400000000000001e-07 0 0  8.7e-07 0 0  9.000000000000001e-07 0 0  9.3e-07 0 0  9.600000000000001e-07 0 0  9.900000000000001e-07 0 0  1.02e-06 0 0  1.05e-06 0 0  1.08e-06 0 0  1.11e-06 0 0  1.14e-06 0 0  1.17e-06 0 0  1.2e-06 0 0  1.23e-06 0 0  1.26e-06 0 0  1.29e-06 0 0  1.32e-06 0 0  1.35e-06 0 0  1.38e-06 0 0  1.41e-06 0 0  1.44e-06 0 0  1.47e-06 0 0  1.5e-06 0 0  1.53e-06 0 0  1.56e-06 0 0  1.59e-06 0 0  1.62e-06 0 0  1.65e-06 0 0  1.68e-06 0 0  1.71e-06 0 0  1.74e-06 0 0  1.77e-06 0 0  1.8e-06 0 0  1.83e-06 0 0  1.86e-06 0 0  1.89e-06 0 0  1.92e-06 0 0  1.95e-06 0 0  1.98e-06 0 0  2.01e-06 0 0  2.04e-06 0 0  2.07e-06 0 0  2.1e-06 0 0  2.13e-06 0 0  2.16e-06 0 0  2.19e-06 0 0  2.22e-06 0 0  2.25e-06 0 0  2.28e-06 0 0  2.31e-06 0 0  2.34e-06 0 0  2.37e-06 0 0  2.4e-06 0 0  2.43e-06 0 0  2.46e-06 0 0  2.49e-06 0 0  2.52e-06 0 0  2.55e-06 0 0  2.58e-06 0 0  2.61e-06 0 0  2.64e-06 0 0  2.67e-06 0 0  2.7e-06 0 0  2.73e-06 0 0  2.76e-06 0 0  2.79e-06 0 0  2.82e-06 0 0  2.85e-06 0 0  2.88e-06 0 0  2.91e-06 0 0  2.94e-06 0 0  2.97e-06 0 0  3e-06 0 0  </DataArray>
</Points>
<Cells>
<DataArray  type="UInt32"  Name="connectivity"  format="ascii">0 1  1 2  2 3  3 4  4 5  5 6  6 7  7 8  8 9  9 10  10 11  11 12  12 13  13 14  14 15  15 16  16 17  17 18  18 19  19 20  20 21  21 22  22 23  23 24  24 25  25 26  26 27  27 28  28 29  29 30  30 31  31 32  32 33  33 34  34 35  35 36  36 37  37 38  38 39  39 40  40 41  41 42  42 43  43 44  44 45  45 46  46 47  47 48  48 49  49 50  50 51  51 52  52 53  53 54  54 55  55 56  56 57  57 58  58 59  59 60  60 61  61 62  62 63  63 64  64 65  65 66  66 67  67 68  68 69  69 70  70 71  71 72  72 73  73 74  74 75  75 76  76 77  77 78  78 79  79 80  80 81  81 82  82 83  83 84  84 85  85 86  86 87  87 88  88 89  89 90  90 91  91 92  92 93  93 94  94 95  95 96  96 97  97 98  98 99  99 100  </DataArray>
<DataArray  type="UInt32"  Name="offsets"  format="ascii">2 4 6 8 10 12 14 16 18 20 22 24 26 28 30 32 34 36 38 40 42 44 46 48 50 52 54 56 58 60 62 64 66 68 70 72 74 76 78 80 82 84 86 88 90 92 94 96 98 100 102 104 106 108 110 112 114 116 118 120 122 124 126 128 130 132 134 136 138 140 142 144 146 148 150 152 154 156 158 160 162 164 166 168 170 172 174 176 178 180 182 184 186 188 190 192 194 196 198 200 </DataArray>
<DataArray  type="UInt8"  Name="types"  format="ascii">3 3 3 3 3 3 3 3 3 3 3 3 3 3 3 3 3 3 3 3 3 3 3 3 3 3 3 3 3 3 3 3 3 3 3 3 3 3 3 3 3 3 3 3 3 3 3 3 3 3 3 3 3 3 3 3 3 3 3 3 3 3 3 3 3 3 3 3 3 3 3 3 3 3 3 3 3 3 3 3 3 3 3 3 3 3 3 3 3 3 3 3 3 3 3 3 3 3 3 3 </DataArray>
</Cells>
<PointData  Scalars="f_16"> 
<DataArray  type="Float64"  Name="f_16"  format="ascii">0.0000000000000000e+00  2.5570057107915640e+20  5.1114879656576169e+20  7.6609257990189862e+20  1.0202803223531506e+21  1.2734611713061759e+21  1.5253852678299525e+21  1.7758039932563767e+21  2.0244702145368708e+21  2.2711385281328683e+21  2.5155655021994752e+21  2.7575099168233158e+21  2.9967330020774584e+21  3.2329986736585090e+21  3.4660737658733199e+21  3.6957282617453692e+21  3.9217355200137569e+21  4.1438724988007560e+21  4.3619199757272277e+21  4.5756627642586376e+21  4.7848899260681814e+21  4.9893949792074575e+21  5.1889761018792106e+21  5.3834363316110843e+21  5.5725837596338013e+21  5.7562317202719517e+21  5.9341989751604684e+21  6.1063098921050272e+21  6.2723946184098038e+21  6.4322892485015865e+21  6.5858359856847882e+21  6.7328832978677305e+21  6.8732860671065315e+21  7.0069057328189811e+21  7.1336104285271218e+21  7.2532751119935309e+21  7.3657816886229158e+21  7.4710191280072331e+21  7.5688835734992773e+21  7.6592784447066656e+21  7.7421145328050210e+21  7.8173100885763141e+21  7.8847909030854677e+21  7.9444903809156194e+21  7.9963496058897574e+21  8.0403173992138675e+21  8.0763503699842386e+21  8.1044129580090330e+21  8.1244774689019066e+21  8.1365241014130280e+21  8.1405409669705137e+21  8.1365241014130217e+21  8.1244774689018961e+21  8.1044129580090193e+21  8.0763503699842218e+21  8.0403173992138487e+21  7.9963496058897354e+21  7.9444903809155974e+21  7.8847909030854425e+21  7.8173100885762858e+21  7.7421145328049885e+21  7.6592784447066289e+21  7.5688835734992365e+21  7.4710191280071891e+21  7.3657816886228675e+21  7.2532751119934785e+21  7.1336104285270673e+21  7.0069057328189234e+21  6.8732860671064707e+21  6.7328832978676645e+21  6.5858359856847137e+21  6.4322892485015089e+21  6.2723946184097221e+21  6.1063098921049433e+21  5.9341989751603876e+21  5.7562317202718699e+21  5.5725837596337216e+21  5.3834363316110056e+21  5.1889761018791319e+21  4.9893949792073810e+21  4.7848899260681101e+21  4.5756627642585674e+21  4.3619199757271622e+21  4.1438724988006962e+21  3.9217355200136998e+21  3.6957282617453178e+21  3.4660737658732754e+21  3.2329986736584681e+21  2.9967330020774207e+21  2.7575099168232859e+21  2.5155655021994485e+21  2.2711385281328442e+21  2.0244702145368529e+21  1.7758039932563612e+21  1.5253852678299391e+21  1.2734611713061673e+21  1.0202803223531430e+21  7.6609257990189220e+20  5.1114879656575972e+20  2.5570057107915542e+20  0.0000000000000000e+00  </DataArray> 
</PointData> 
</Piece>
</UnstructuredGrid>
</VTKFile>