<?xml version="1.0"?>
<VTKFile type="UnstructuredGrid"  version="0.1"  >
<UnstructuredGrid>
<Piece  NumberOfPoints="101" NumberOfCells="100">
<Points>
<DataArray  type="Float64"  NumberOfComponents="3"  format="ascii">0 0 0  3e-08 0 0  6.000000000000001e-08 0 0  9e-08 0 0  1.2e-07 0 0  1.5e-07 0 0  1.8e-07 0 0  2.1e-07 0 0  2.4e-07 0 0  2.7e-07 0 0  3e-07 0 0  3.3e-07 0 0  3.6e-07 0 0  3.9e-07 0 0  4.200000000000001e-07 0 0  4.5e-07 0 0  4.800000000000001e-07 0 0  5.1e-07 0 0  5.4e-07 0 0  5.7e-07 0 0  6e-07 0 0  6.3e-07 0 0  6.6e-07 0 0  6.9e-07 0 0  7.2e-07 0 0  7.5e-07 0 0  7.799999999999999e-07 0 0  8.100000000000001e-07 0 0  8.400000000000001e-07 0 0  8.7e-07 0 0  9.000000000000001e-07 0 0  9.3e-07 0 0  9.600000000000001e-07 0 0  9.900000000000001e-07 0 0  1.02e-06 0 0  1.05e-06 0 0  1.08e-06 0 0  1.11e-06 0 0  1.14e-06 0 0  1.17e-06 0 0  1.2e-06 0 0  1.23e-06 0 0  1.26e-06 0 0  1.29e-06 0 0  1.32e-06 0 0  1.35e-06 0 0  1.38e-06 0 0  1.41e-06 0 0  1.44e-06 0 0  1.47e-06 0 0  1.5e-06 0 0  1.53e-06 0 0  1.56e-06 0 0  1.59e-06 0 0  1.62e-06 0 0  1.65e-06 0 0  1.68e-06 0 0  1.71e-06 0 0  1.74e-06 0 0  1.77e-06 0 0  1.8e-06 0 0  1.83e-06 0 0  1.86e-06 0 0  1.89e-06 0 0  1.92e-06 0 0  1.95e-06 0 0  1.98e-06 0 0  2.01e-06 0 0  2.04e-06 0 0  2.07e-06 0 0  2.1e-06 0 0  2.13e-06 0 0  2.16e-06 0 0  2.19e-06 0 0  2.22e-06 0 0  2.25e-06 0 0  2.28e-06 0 0  2.31e-06 0 0  2.34e-06 0 0  2.37e-06 0 0  2.4e-06 0 0  2.43e-06 0 0  2.46e-06 0 0  2.49e-06 0 0  2.52e-06 0 0  2.55e-06 0 0  2.58e-06 0 0  2.61e-06 0 0  2.64e-06 0 0  2.67e-06 0 0  2.7e-06 0 0  2.73e-06 0 0  2.76e-06 0 0  2.79e-06 0 0  2.82e-06 0 0  2.85e-06 0 0  2.88e-06 0 0  2.91e-06 0 0  2.94e-06 0 0  2.97e-06 0 0  3e-06 0 0  </DataArray>
</Points>
<Cells>
<DataArray  type="UInt32"  Name="connectivity"  format="ascii">0 1  1 2  2 3  3 4  4 5  5 6  6 7  7 8  8 9  9 10  10 11  11 12  12 13  13 14  14 15  15 16  16 17  17 18  18 19  19 20  20 21  21 22  22 23  23 24  24 25  25 26  26 27  27 28  28 29  29 30  30 31  31 32  32 33  33 34  34 35  35 36  36 37  37 38  38 39  39 40  40 41  41 42  42 43  43 44  44 45  45 46  46 47  47 48  48 49  49 50  50 51  51 52  52 53  53 54  54 55  55 56  56 57  57 58  58 59  59 60  60 61  61 62  62 63  63 64  64 65  65 66  66 67  67 68  68 69  69 70  70 71  71 72  72 73  73 74  74 75  75 76  76 77  77 78  78 79  79 80  80 81  81 82  82 83  83 84  84 85  85 86  86 87  87 88  88 89  89 90  90 91  91 92  92 93  93 94  94 95  95 96  96 97  97 98  98 99  99 100  </DataArray>
<DataArray  type="UInt32"  Name="offsets"  format="ascii">2 4 6 8 10 12 14 16 18 20 22 24 26 28 30 32 34 36 38 40 42 44 46 48 50 52 54 56 58 60 62 64 66 68 70 72 74 76 78 80 82 84 86 88 90 92 94 96 98 100 102 104 106 108 110 112 114 116 118 120 122 124 126 128 130 132 134 136 138 140 142 144 146 148 150 152 154 156 158 160 162 164 166 168 170 172 174 176 178 180 182 184 186 188 190 192 194 196 198 200 </DataArray>
<DataArray  type="UInt8"  Name="types"  format="ascii">3 3 3 3 3 3 3 3 3 3 3 3 3 3 3 3 3 3 3 3 3 3 3 3 3 3 3 3 3 3 3 3 3 3 3 3 3 3 3 3 3 3 3 3 3 3 3 3 3 3 3 3 3 3 3 3 3 3 3 3 3 3 3 3 3 3 3 3 3 3 3 3 3 3 3 3 3 3 3 3 3 3 3 3 3 3 3 3 3 3 3 3 3 3 3 3 3 3 3 3 </DataArray>
</Cells>
<PointData  Scalars="f_16"> 
<DataArray  type="Float64"  Name="f_16"  format="ascii">0.0000000000000000e+00  5.7536658925797329e+21  1.1501653594718465e+22  1.7238290519813219e+22  2.2957915283405429e+22  2.8654883290429495e+22  3.4323572305888343e+22  3.9958388003457080e+22  4.5553769486537688e+22  5.1104194776315231e+22  5.6604186261398015e+22  6.2048316103663079e+22  6.7431211594970598e+22  7.2747560459460468e+22  7.7992116096197309e+22  8.3159702756989407e+22  8.8245220654271372e+22  9.3243650994009128e+22  9.8150060928660205e+22  1.0295960842530094e+23  1.0766754704411660e+23  1.1226923062253896e+23  1.1676011786040803e+23  1.2113577680163415e+23  1.2539188920793780e+23  1.2952425482035111e+23  1.3352879550427636e+23  1.3740155927401186e+23  1.4113872419277374e+23  1.4473660214436653e+23  1.4819164247278082e+23  1.5150043548612760e+23  1.5465971582145244e+23  1.5766636566710983e+23  1.6051741783951970e+23  1.6321005871126969e+23  1.6574163098767611e+23  1.6810963632906433e+23  1.7031173781618149e+23  1.7234576225631063e+23  1.7420970232781124e+23  1.7590171856097086e+23  1.7742014115321457e+23  1.7876347161688166e+23  1.7993038425794431e+23  1.8091972748421048e+23  1.8173052494172026e+23  1.8236197647821490e+23  1.8281345893272927e+23  1.8308452675052760e+23  1.8317491242277746e+23  1.8308452675052750e+23  1.8281345893272906e+23  1.8236197647821464e+23  1.8173052494171992e+23  1.8091972748421011e+23  1.7993038425794388e+23  1.7876347161688119e+23  1.7742014115321407e+23  1.7590171856097029e+23  1.7420970232781057e+23  1.7234576225630989e+23  1.7031173781618062e+23  1.6810963632906335e+23  1.6574163098767507e+23  1.6321005871126855e+23  1.6051741783951856e+23  1.5766636566710863e+23  1.5465971582145113e+23  1.5150043548612616e+23  1.4819164247277925e+23  1.4473660214436487e+23  1.4113872419277195e+23  1.3740155927401004e+23  1.3352879550427461e+23  1.2952425482034935e+23  1.2539188920793609e+23  1.2113577680163251e+23  1.1676011786040637e+23  1.1226923062253733e+23  1.0766754704411506e+23  1.0295960842529941e+23  9.8150060928658796e+22  9.3243650994007869e+22  8.8245220654270164e+22  8.3159702756988300e+22  7.7992116096196369e+22  7.2747560459459612e+22  6.7431211594969818e+22  6.2048316103662449e+22  5.6604186261397453e+22  5.1104194776314719e+22  4.5553769486537319e+22  3.9958388003456745e+22  3.4323572305888058e+22  2.8654883290429314e+22  2.2957915283405266e+22  1.7238290519813085e+22  1.1501653594718429e+22  5.7536658925797140e+21  0.0000000000000000e+00  </DataArray> 
</PointData> 
</Piece>
</UnstructuredGrid>
</VTKFile>