<?xml version="1.0"?>
<VTKFile type="UnstructuredGrid"  version="0.1"  >
<UnstructuredGrid>
<Piece  NumberOfPoints="101" NumberOfCells="100">
<Points>
<DataArray  type="Float64"  NumberOfComponents="3"  format="ascii">0 0 0  3e-08 0 0  6.000000000000001e-08 0 0  9e-08 0 0  1.2e-07 0 0  1.5e-07 0 0  1.8e-07 0 0  2.1e-07 0 0  2.4e-07 0 0  2.7e-07 0 0  3e-07 0 0  3.3e-07 0 0  3.6e-07 0 0  3.9e-07 0 0  4.200000000000001e-07 0 0  4.5e-07 0 0  4.800000000000001e-07 0 0  5.1e-07 0 0  5.4e-07 0 0  5.7e-07 0 0  6e-07 0 0  6.3e-07 0 0  6.6e-07 0 0  6.9e-07 0 0  7.2e-07 0 0  7.5e-07 0 0  7.799999999999999e-07 0 0  8.100000000000001e-07 0 0  8.400000000000001e-07 0 0  8.7e-07 0 0  9.000000000000001e-07 0 0  9.3e-07 0 0  9.600000000000001e-07 0 0  9.900000000000001e-07 0 0  1.02e-06 0 0  1.05e-06 0 0  1.08e-06 0 0  1.11e-06 0 0  1.14e-06 0 0  1.17e-06 0 0  1.2e-06 0 0  1.23e-06 0 0  1.26e-06 0 0  1.29e-06 0 0  1.32e-06 0 0  1.35e-06 0 0  1.38e-06 0 0  1.41e-06 0 0  1.44e-06 0 0  1.47e-06 0 0  1.5e-06 0 0  1.53e-06 0 0  1.56e-06 0 0  1.59e-06 0 0  1.62e-06 0 0  1.65e-06 0 0  1.68e-06 0 0  1.71e-06 0 0  1.74e-06 0 0  1.77e-06 0 0  1.8e-06 0 0  1.83e-06 0 0  1.86e-06 0 0  1.89e-06 0 0  1.92e-06 0 0  1.95e-06 0 0  1.98e-06 0 0  2.01e-06 0 0  2.04e-06 0 0  2.07e-06 0 0  2.1e-06 0 0  2.13e-06 0 0  2.16e-06 0 0  2.19e-06 0 0  2.22e-06 0 0  2.25e-06 0 0  2.28e-06 0 0  2.31e-06 0 0  2.34e-06 0 0  2.37e-06 0 0  2.4e-06 0 0  2.43e-06 0 0  2.46e-06 0 0  2.49e-06 0 0  2.52e-06 0 0  2.55e-06 0 0  2.58e-06 0 0  2.61e-06 0 0  2.64e-06 0 0  2.67e-06 0 0  2.7e-06 0 0  2.73e-06 0 0  2.76e-06 0 0  2.79e-06 0 0  2.82e-06 0 0  2.85e-06 0 0  2.88e-06 0 0  2.91e-06 0 0  2.94e-06 0 0  2.97e-06 0 0  3e-06 0 0  </DataArray>
</Points>
<Cells>
<DataArray  type="UInt32"  Name="connectivity"  format="ascii">0 1  1 2  2 3  3 4  4 5  5 6  6 7  7 8  8 9  9 10  10 11  11 12  12 13  13 14  14 15  15 16  16 17  17 18  18 19  19 20  20 21  21 22  22 23  23 24  24 25  25 26  26 27  27 28  28 29  29 30  30 31  31 32  32 33  33 34  34 35  35 36  36 37  37 38  38 39  39 40  40 41  41 42  42 43  43 44  44 45  45 46  46 47  47 48  48 49  49 50  50 51  51 52  52 53  53 54  54 55  55 56  56 57  57 58  58 59  59 60  60 61  61 62  62 63  63 64  64 65  65 66  66 67  67 68  68 69  69 70  70 71  71 72  72 73  73 74  74 75  75 76  76 77  77 78  78 79  79 80  80 81  81 82  82 83  83 84  84 85  85 86  86 87  87 88  88 89  89 90  90 91  91 92  92 93  93 94  94 95  95 96  96 97  97 98  98 99  99 100  </DataArray>
<DataArray  type="UInt32"  Name="offsets"  format="ascii">2 4 6 8 10 12 14 16 18 20 22 24 26 28 30 32 34 36 38 40 42 44 46 48 50 52 54 56 58 60 62 64 66 68 70 72 74 76 78 80 82 84 86 88 90 92 94 96 98 100 102 104 106 108 110 112 114 116 118 120 122 124 126 128 130 132 134 136 138 140 142 144 146 148 150 152 154 156 158 160 162 164 166 168 170 172 174 176 178 180 182 184 186 188 190 192 194 196 198 200 </DataArray>
<DataArray  type="UInt8"  Name="types"  format="ascii">3 3 3 3 3 3 3 3 3 3 3 3 3 3 3 3 3 3 3 3 3 3 3 3 3 3 3 3 3 3 3 3 3 3 3 3 3 3 3 3 3 3 3 3 3 3 3 3 3 3 3 3 3 3 3 3 3 3 3 3 3 3 3 3 3 3 3 3 3 3 3 3 3 3 3 3 3 3 3 3 3 3 3 3 3 3 3 3 3 3 3 3 3 3 3 3 3 3 3 3 </DataArray>
</Cells>
<PointData  Scalars="f_16"> 
<DataArray  type="Float64"  Name="f_16"  format="ascii">0.0000000000000000e+00  6.4856419479702135e+21  1.2964883314195825e+22  1.9431329833854645e+22  2.5878599869732437e+22  3.2300330710440824e+22  3.8690184849949299e+22  4.5041856242231368e+22  5.1349076524849825e+22  5.7605621205336557e+22  6.3805315804259460e+22  6.9942041948911865e+22  7.6009743411608574e+22  8.2002432086627846e+22  8.7914193899899180e+22  9.3739194645603357e+22  9.9471685743923769e+22  1.0510600991426561e+23  1.1063660675834442e+23  1.1605801824763268e+23  1.2136489410974968e+23  1.2655199710847960e+23  1.3161420821220615e+23  1.3654653164566527e+23  1.4134409982003097e+23  1.4600217813646972e+23  1.5051616965842489e+23  1.5488161964802223e+23  1.5909421996212026e+23  1.6314981330367057e+23  1.6704439732419421e+23  1.7077412857332780e+23  1.7433532629154450e+23  1.7772447604230898e+23  1.8093823318008577e+23  1.8397342615078017e+23  1.8682705962135785e+23  1.8949631743555761e+23  1.9197856539278295e+23  1.9427135384743275e+23  1.9637242012610911e+23  1.9827969076031849e+23  1.9999128353246656e+23  2.0150550933312873e+23  2.0282087382776644e+23  2.0393607893124630e+23  2.0485002408870865e+23  2.0556180736152310e+23  2.0607072631726083e+23  2.0637627872280647e+23  2.0647816303992666e+23  2.0637627872280633e+23  2.0607072631726056e+23  2.0556180736152277e+23  2.0485002408870822e+23  2.0393607893124583e+23  2.0282087382776594e+23  2.0150550933312819e+23  1.9999128353246595e+23  1.9827969076031781e+23  1.9637242012610827e+23  1.9427135384743181e+23  1.9197856539278191e+23  1.8949631743555653e+23  1.8682705962135661e+23  1.8397342615077889e+23  1.8093823318008436e+23  1.7772447604230747e+23  1.7433532629154296e+23  1.7077412857332616e+23  1.6704439732419243e+23  1.6314981330366869e+23  1.5909421996211824e+23  1.5488161964802018e+23  1.5051616965842291e+23  1.4600217813646769e+23  1.4134409982002901e+23  1.3654653164566341e+23  1.3161420821220425e+23  1.2655199710847777e+23  1.2136489410974796e+23  1.1605801824763098e+23  1.1063660675834286e+23  1.0510600991426420e+23  9.9471685743922393e+22  9.3739194645602133e+22  8.7914193899898123e+22  8.2002432086626873e+22  7.6009743411607702e+22  6.9942041948911160e+22  6.3805315804258814e+22  5.7605621205335970e+22  5.1349076524849389e+22  4.5041856242230982e+22  3.8690184849948955e+22  3.2300330710440614e+22  2.5878599869732252e+22  1.9431329833854490e+22  1.2964883314195783e+22  6.4856419479701925e+21  0.0000000000000000e+00  </DataArray> 
</PointData> 
</Piece>
</UnstructuredGrid>
</VTKFile>