<?xml version="1.0"?>
<VTKFile type="UnstructuredGrid"  version="0.1"  >
<UnstructuredGrid>
<Piece  NumberOfPoints="101" NumberOfCells="100">
<Points>
<DataArray  type="Float64"  NumberOfComponents="3"  format="ascii">0 0 0  3e-08 0 0  6.000000000000001e-08 0 0  9e-08 0 0  1.2e-07 0 0  1.5e-07 0 0  1.8e-07 0 0  2.1e-07 0 0  2.4e-07 0 0  2.7e-07 0 0  3e-07 0 0  3.3e-07 0 0  3.6e-07 0 0  3.9e-07 0 0  4.200000000000001e-07 0 0  4.5e-07 0 0  4.800000000000001e-07 0 0  5.1e-07 0 0  5.4e-07 0 0  5.7e-07 0 0  6e-07 0 0  6.3e-07 0 0  6.6e-07 0 0  6.9e-07 0 0  7.2e-07 0 0  7.5e-07 0 0  7.799999999999999e-07 0 0  8.100000000000001e-07 0 0  8.400000000000001e-07 0 0  8.7e-07 0 0  9.000000000000001e-07 0 0  9.3e-07 0 0  9.600000000000001e-07 0 0  9.900000000000001e-07 0 0  1.02e-06 0 0  1.05e-06 0 0  1.08e-06 0 0  1.11e-06 0 0  1.14e-06 0 0  1.17e-06 0 0  1.2e-06 0 0  1.23e-06 0 0  1.26e-06 0 0  1.29e-06 0 0  1.32e-06 0 0  1.35e-06 0 0  1.38e-06 0 0  1.41e-06 0 0  1.44e-06 0 0  1.47e-06 0 0  1.5e-06 0 0  1.53e-06 0 0  1.56e-06 0 0  1.59e-06 0 0  1.62e-06 0 0  1.65e-06 0 0  1.68e-06 0 0  1.71e-06 0 0  1.74e-06 0 0  1.77e-06 0 0  1.8e-06 0 0  1.83e-06 0 0  1.86e-06 0 0  1.89e-06 0 0  1.92e-06 0 0  1.95e-06 0 0  1.98e-06 0 0  2.01e-06 0 0  2.04e-06 0 0  2.07e-06 0 0  2.1e-06 0 0  2.13e-06 0 0  2.16e-06 0 0  2.19e-06 0 0  2.22e-06 0 0  2.25e-06 0 0  2.28e-06 0 0  2.31e-06 0 0  2.34e-06 0 0  2.37e-06 0 0  2.4e-06 0 0  2.43e-06 0 0  2.46e-06 0 0  2.49e-06 0 0  2.52e-06 0 0  2.55e-06 0 0  2.58e-06 0 0  2.61e-06 0 0  2.64e-06 0 0  2.67e-06 0 0  2.7e-06 0 0  2.73e-06 0 0  2.76e-06 0 0  2.79e-06 0 0  2.82e-06 0 0  2.85e-06 0 0  2.88e-06 0 0  2.91e-06 0 0  2.94e-06 0 0  2.97e-06 0 0  3e-06 0 0  </DataArray>
</Points>
<Cells>
<DataArray  type="UInt32"  Name="connectivity"  format="ascii">0 1  1 2  2 3  3 4  4 5  5 6  6 7  7 8  8 9  9 10  10 11  11 12  12 13  13 14  14 15  15 16  16 17  17 18  18 19  19 20  20 21  21 22  22 23  23 24  24 25  25 26  26 27  27 28  28 29  29 30  30 31  31 32  32 33  33 34  34 35  35 36  36 37  37 38  38 39  39 40  40 41  41 42  42 43  43 44  44 45  45 46  46 47  47 48  48 49  49 50  50 51  51 52  52 53  53 54  54 55  55 56  56 57  57 58  58 59  59 60  60 61  61 62  62 63  63 64  64 65  65 66  66 67  67 68  68 69  69 70  70 71  71 72  72 73  73 74  74 75  75 76  76 77  77 78  78 79  79 80  80 81  81 82  82 83  83 84  84 85  85 86  86 87  87 88  88 89  89 90  90 91  91 92  92 93  93 94  94 95  95 96  96 97  97 98  98 99  99 100  </DataArray>
<DataArray  type="UInt32"  Name="offsets"  format="ascii">2 4 6 8 10 12 14 16 18 20 22 24 26 28 30 32 34 36 38 40 42 44 46 48 50 52 54 56 58 60 62 64 66 68 70 72 74 76 78 80 82 84 86 88 90 92 94 96 98 100 102 104 106 108 110 112 114 116 118 120 122 124 126 128 130 132 134 136 138 140 142 144 146 148 150 152 154 156 158 160 162 164 166 168 170 172 174 176 178 180 182 184 186 188 190 192 194 196 198 200 </DataArray>
<DataArray  type="UInt8"  Name="types"  format="ascii">3 3 3 3 3 3 3 3 3 3 3 3 3 3 3 3 3 3 3 3 3 3 3 3 3 3 3 3 3 3 3 3 3 3 3 3 3 3 3 3 3 3 3 3 3 3 3 3 3 3 3 3 3 3 3 3 3 3 3 3 3 3 3 3 3 3 3 3 3 3 3 3 3 3 3 3 3 3 3 3 3 3 3 3 3 3 3 3 3 3 3 3 3 3 3 3 3 3 3 3 </DataArray>
</Cells>
<PointData  Scalars="f_16"> 
<DataArray  type="Float64"  Name="f_16"  format="ascii">0.0000000000000000e+00  6.0583165235797745e+22  1.2106379099117935e+23  1.8134005498177064e+23  2.4131154682281547e+23  3.0087992167350506e+23  3.5994949934213503e+23  4.1842779989100706e+23  4.7622601043866945e+23  5.3325938076062831e+23  5.8944754756102913e+23  6.4471478903240313e+23  6.9899021262852187e+23  7.5220787992362538e+23  8.0430687308519355e+23  8.5523130790255923e+23  9.0493029853693310e+23  9.5335787922939988e+23  1.0004728881553597e+24  1.0462388184744512e+24  1.0906236414172925e+24  1.1335996059934725e+24  1.1751430196147418e+24  1.2152340136161000e+24  1.2538562973356911e+24  1.2909969040903315e+24  1.3266459320635883e+24  1.3607962828125619e+24  1.3934433998016836e+24  1.4245850090896930e+24  1.4542208640313856e+24  1.4823524956099656e+24  1.5089829697895666e+24  1.5341166530709312e+24  1.5577589872462125e+24  1.5799162741809598e+24  1.6005954713019480e+24  1.6198039983377845e+24  1.6375495557442412e+24  1.6538399551470561e+24  1.6686829620503883e+24  1.6820861509881770e+24  1.6940567732371606e+24  1.7046016371632299e+24  1.7137270012359408e+24  1.7214384797183812e+24  1.7277409610200666e+24  1.7326385386881331e+24  1.7361344550057675e+24  1.7382310571655878e+24  1.7389297659886147e+24  1.7382310571655870e+24  1.7361344550057661e+24  1.7326385386881310e+24  1.7277409610200641e+24  1.7214384797183788e+24  1.7137270012359381e+24  1.7046016371632269e+24  1.6940567732371579e+24  1.6820861509881737e+24  1.6686829620503843e+24  1.6538399551470512e+24  1.6375495557442361e+24  1.6198039983377786e+24  1.6005954713019411e+24  1.5799162741809526e+24  1.5577589872462050e+24  1.5341166530709232e+24  1.5089829697895580e+24  1.4823524956099560e+24  1.4542208640313746e+24  1.4245850090896812e+24  1.3934433998016709e+24  1.3607962828125493e+24  1.3266459320635762e+24  1.2909969040903194e+24  1.2538562973356792e+24  1.2152340136160888e+24  1.1751430196147305e+24  1.1335996059934617e+24  1.0906236414172824e+24  1.0462388184744411e+24  1.0004728881553505e+24  9.5335787922939183e+23  9.0493029853692545e+23  8.5523130790255252e+23  8.0430687308518804e+23  7.5220787992362068e+23  6.9899021262851784e+23  6.4471478903240031e+23  5.8944754756102685e+23  5.3325938076062629e+23  4.7622601043866851e+23  4.1842779989100619e+23  3.5994949934213429e+23  3.0087992167350516e+23  2.4131154682281536e+23  1.8134005498177044e+23  1.2106379099117979e+23  6.0583165235797971e+22  0.0000000000000000e+00  </DataArray> 
</PointData> 
</Piece>
</UnstructuredGrid>
</VTKFile>