<?xml version="1.0"?>
<VTKFile type="UnstructuredGrid"  version="0.1"  >
<UnstructuredGrid>
<Piece  NumberOfPoints="101" NumberOfCells="100">
<Points>
<DataArray  type="Float64"  NumberOfComponents="3"  format="ascii">0 0 0  3e-08 0 0  6.000000000000001e-08 0 0  9e-08 0 0  1.2e-07 0 0  1.5e-07 0 0  1.8e-07 0 0  2.1e-07 0 0  2.4e-07 0 0  2.7e-07 0 0  3e-07 0 0  3.3e-07 0 0  3.6e-07 0 0  3.9e-07 0 0  4.200000000000001e-07 0 0  4.5e-07 0 0  4.800000000000001e-07 0 0  5.1e-07 0 0  5.4e-07 0 0  5.7e-07 0 0  6e-07 0 0  6.3e-07 0 0  6.6e-07 0 0  6.9e-07 0 0  7.2e-07 0 0  7.5e-07 0 0  7.799999999999999e-07 0 0  8.100000000000001e-07 0 0  8.400000000000001e-07 0 0  8.7e-07 0 0  9.000000000000001e-07 0 0  9.3e-07 0 0  9.600000000000001e-07 0 0  9.900000000000001e-07 0 0  1.02e-06 0 0  1.05e-06 0 0  1.08e-06 0 0  1.11e-06 0 0  1.14e-06 0 0  1.17e-06 0 0  1.2e-06 0 0  1.23e-06 0 0  1.26e-06 0 0  1.29e-06 0 0  1.32e-06 0 0  1.35e-06 0 0  1.38e-06 0 0  1.41e-06 0 0  1.44e-06 0 0  1.47e-06 0 0  1.5e-06 0 0  1.53e-06 0 0  1.56e-06 0 0  1.59e-06 0 0  1.62e-06 0 0  1.65e-06 0 0  1.68e-06 0 0  1.71e-06 0 0  1.74e-06 0 0  1.77e-06 0 0  1.8e-06 0 0  1.83e-06 0 0  1.86e-06 0 0  1.89e-06 0 0  1.92e-06 0 0  1.95e-06 0 0  1.98e-06 0 0  2.01e-06 0 0  2.04e-06 0 0  2.07e-06 0 0  2.1e-06 0 0  2.13e-06 0 0  2.16e-06 0 0  2.19e-06 0 0  2.22e-06 0 0  2.25e-06 0 0  2.28e-06 0 0  2.31e-06 0 0  2.34e-06 0 0  2.37e-06 0 0  2.4e-06 0 0  2.43e-06 0 0  2.46e-06 0 0  2.49e-06 0 0  2.52e-06 0 0  2.55e-06 0 0  2.58e-06 0 0  2.61e-06 0 0  2.64e-06 0 0  2.67e-06 0 0  2.7e-06 0 0  2.73e-06 0 0  2.76e-06 0 0  2.79e-06 0 0  2.82e-06 0 0  2.85e-06 0 0  2.88e-06 0 0  2.91e-06 0 0  2.94e-06 0 0  2.97e-06 0 0  3e-06 0 0  </DataArray>
</Points>
<Cells>
<DataArray  type="UInt32"  Name="connectivity"  format="ascii">0 1  1 2  2 3  3 4  4 5  5 6  6 7  7 8  8 9  9 10  10 11  11 12  12 13  13 14  14 15  15 16  16 17  17 18  18 19  19 20  20 21  21 22  22 23  23 24  24 25  25 26  26 27  27 28  28 29  29 30  30 31  31 32  32 33  33 34  34 35  35 36  36 37  37 38  38 39  39 40  40 41  41 42  42 43  43 44  44 45  45 46  46 47  47 48  48 49  49 50  50 51  51 52  52 53  53 54  54 55  55 56  56 57  57 58  58 59  59 60  60 61  61 62  62 63  63 64  64 65  65 66  66 67  67 68  68 69  69 70  70 71  71 72  72 73  73 74  74 75  75 76  76 77  77 78  78 79  79 80  80 81  81 82  82 83  83 84  84 85  85 86  86 87  87 88  88 89  89 90  90 91  91 92  92 93  93 94  94 95  95 96  96 97  97 98  98 99  99 100  </DataArray>
<DataArray  type="UInt32"  Name="offsets"  format="ascii">2 4 6 8 10 12 14 16 18 20 22 24 26 28 30 32 34 36 38 40 42 44 46 48 50 52 54 56 58 60 62 64 66 68 70 72 74 76 78 80 82 84 86 88 90 92 94 96 98 100 102 104 106 108 110 112 114 116 118 120 122 124 126 128 130 132 134 136 138 140 142 144 146 148 150 152 154 156 158 160 162 164 166 168 170 172 174 176 178 180 182 184 186 188 190 192 194 196 198 200 </DataArray>
<DataArray  type="UInt8"  Name="types"  format="ascii">3 3 3 3 3 3 3 3 3 3 3 3 3 3 3 3 3 3 3 3 3 3 3 3 3 3 3 3 3 3 3 3 3 3 3 3 3 3 3 3 3 3 3 3 3 3 3 3 3 3 3 3 3 3 3 3 3 3 3 3 3 3 3 3 3 3 3 3 3 3 3 3 3 3 3 3 3 3 3 3 3 3 3 3 3 3 3 3 3 3 3 3 3 3 3 3 3 3 3 3 </DataArray>
</Cells>
<PointData  Scalars="f_16"> 
<DataArray  type="Float64"  Name="f_16"  format="ascii">0.0000000000000000e+00  6.6649541909821876e+20  1.3323330876847368e+21  1.9968559043681966e+21  2.6594080653573274e+21  3.3193357116601066e+21  3.9759875743636469e+21  4.6287156173579863e+21  5.2768756768694830e+21  5.9198280971727007e+21  6.5569383618533707e+21  7.1875777199994999e+21  7.8111238067025997e+21  8.4269612572567142e+21  9.0344823144490992e+21  9.6330874283432042e+21  1.0222185847962085e+22  1.0801196204288282e+22  1.1369547084004877e+22  1.1926677593411423e+22  1.2472037911958315e+22  1.3005089834853303e+22  1.3525307304204640e+22  1.4032176928176692e+22  1.4525198487645728e+22  1.5003885429855774e+22  1.5467765348587450e+22  1.5916380450365892e+22  1.6349288006247611e+22  1.6766060788740520e+22  1.7166287493425915e+22  1.7549573144866235e+22  1.7915539486398183e+22  1.8263825353426323e+22  1.8594087029848987e+22  1.8905998587264537e+22  1.9199252206623356e+22  1.9473558482008093e+22  1.9728646706242366e+22  1.9964265138046038e+22  2.0180181250473493e+22  2.0376181960389660e+22  2.0552073838757310e+22  2.0707683301528187e+22  2.0842856780949526e+22  2.0957460877116816e+22  2.1051382489623478e+22  2.1124528929177273e+22  2.1176828009073443e+22  2.1208228116434279e+22  2.1218698263144790e+22  2.1208228116434258e+22  2.1176828009073410e+22  2.1124528929177235e+22  2.1051382489623436e+22  2.0957460877116770e+22  2.0842856780949472e+22  2.0707683301528137e+22  2.0552073838757247e+22  2.0376181960389593e+22  2.0180181250473418e+22  1.9964265138045946e+22  1.9728646706242261e+22  1.9473558482007984e+22  1.9199252206623234e+22  1.8905998587264407e+22  1.8594087029848855e+22  1.8263825353426181e+22  1.7915539486398032e+22  1.7549573144866072e+22  1.7166287493425730e+22  1.6766060788740325e+22  1.6349288006247399e+22  1.5916380450365679e+22  1.5467765348587243e+22  1.5003885429855565e+22  1.4525198487645525e+22  1.4032176928176499e+22  1.3525307304204445e+22  1.3005089834853116e+22  1.2472037911958137e+22  1.1926677593411249e+22  1.1369547084004715e+22  1.0801196204288138e+22  1.0222185847961944e+22  9.6330874283430783e+21  9.0344823144489901e+21  8.4269612572566146e+21  7.8111238067025095e+21  7.1875777199994275e+21  6.5569383618533046e+21  5.9198280971726409e+21  5.2768756768694390e+21  4.6287156173579469e+21  3.9759875743636133e+21  3.3193357116600851e+21  2.6594080653573090e+21  1.9968559043681816e+21  1.3323330876847326e+21  6.6649541909821666e+20  0.0000000000000000e+00  </DataArray> 
</PointData> 
</Piece>
</UnstructuredGrid>
</VTKFile>