<?xml version="1.0"?>
<VTKFile type="UnstructuredGrid"  version="0.1"  >
<UnstructuredGrid>
<Piece  NumberOfPoints="101" NumberOfCells="100">
<Points>
<DataArray  type="Float64"  NumberOfComponents="3"  format="ascii">0 0 0  3e-08 0 0  6.000000000000001e-08 0 0  9e-08 0 0  1.2e-07 0 0  1.5e-07 0 0  1.8e-07 0 0  2.1e-07 0 0  2.4e-07 0 0  2.7e-07 0 0  3e-07 0 0  3.3e-07 0 0  3.6e-07 0 0  3.9e-07 0 0  4.200000000000001e-07 0 0  4.5e-07 0 0  4.800000000000001e-07 0 0  5.1e-07 0 0  5.4e-07 0 0  5.7e-07 0 0  6e-07 0 0  6.3e-07 0 0  6.6e-07 0 0  6.9e-07 0 0  7.2e-07 0 0  7.5e-07 0 0  7.799999999999999e-07 0 0  8.100000000000001e-07 0 0  8.400000000000001e-07 0 0  8.7e-07 0 0  9.000000000000001e-07 0 0  9.3e-07 0 0  9.600000000000001e-07 0 0  9.900000000000001e-07 0 0  1.02e-06 0 0  1.05e-06 0 0  1.08e-06 0 0  1.11e-06 0 0  1.14e-06 0 0  1.17e-06 0 0  1.2e-06 0 0  1.23e-06 0 0  1.26e-06 0 0  1.29e-06 0 0  1.32e-06 0 0  1.35e-06 0 0  1.38e-06 0 0  1.41e-06 0 0  1.44e-06 0 0  1.47e-06 0 0  1.5e-06 0 0  1.53e-06 0 0  1.56e-06 0 0  1.59e-06 0 0  1.62e-06 0 0  1.65e-06 0 0  1.68e-06 0 0  1.71e-06 0 0  1.74e-06 0 0  1.77e-06 0 0  1.8e-06 0 0  1.83e-06 0 0  1.86e-06 0 0  1.89e-06 0 0  1.92e-06 0 0  1.95e-06 0 0  1.98e-06 0 0  2.01e-06 0 0  2.04e-06 0 0  2.07e-06 0 0  2.1e-06 0 0  2.13e-06 0 0  2.16e-06 0 0  2.19e-06 0 0  2.22e-06 0 0  2.25e-06 0 0  2.28e-06 0 0  2.31e-06 0 0  2.34e-06 0 0  2.37e-06 0 0  2.4e-06 0 0  2.43e-06 0 0  2.46e-06 0 0  2.49e-06 0 0  2.52e-06 0 0  2.55e-06 0 0  2.58e-06 0 0  2.61e-06 0 0  2.64e-06 0 0  2.67e-06 0 0  2.7e-06 0 0  2.73e-06 0 0  2.76e-06 0 0  2.79e-06 0 0  2.82e-06 0 0  2.85e-06 0 0  2.88e-06 0 0  2.91e-06 0 0  2.94e-06 0 0  2.97e-06 0 0  3e-06 0 0  </DataArray>
</Points>
<Cells>
<DataArray  type="UInt32"  Name="connectivity"  format="ascii">0 1  1 2  2 3  3 4  4 5  5 6  6 7  7 8  8 9  9 10  10 11  11 12  12 13  13 14  14 15  15 16  16 17  17 18  18 19  19 20  20 21  21 22  22 23  23 24  24 25  25 26  26 27  27 28  28 29  29 30  30 31  31 32  32 33  33 34  34 35  35 36  36 37  37 38  38 39  39 40  40 41  41 42  42 43  43 44  44 45  45 46  46 47  47 48  48 49  49 50  50 51  51 52  52 53  53 54  54 55  55 56  56 57  57 58  58 59  59 60  60 61  61 62  62 63  63 64  64 65  65 66  66 67  67 68  68 69  69 70  70 71  71 72  72 73  73 74  74 75  75 76  76 77  77 78  78 79  79 80  80 81  81 82  82 83  83 84  84 85  85 86  86 87  87 88  88 89  89 90  90 91  91 92  92 93  93 94  94 95  95 96  96 97  97 98  98 99  99 100  </DataArray>
<DataArray  type="UInt32"  Name="offsets"  format="ascii">2 4 6 8 10 12 14 16 18 20 22 24 26 28 30 32 34 36 38 40 42 44 46 48 50 52 54 56 58 60 62 64 66 68 70 72 74 76 78 80 82 84 86 88 90 92 94 96 98 100 102 104 106 108 110 112 114 116 118 120 122 124 126 128 130 132 134 136 138 140 142 144 146 148 150 152 154 156 158 160 162 164 166 168 170 172 174 176 178 180 182 184 186 188 190 192 194 196 198 200 </DataArray>
<DataArray  type="UInt8"  Name="types"  format="ascii">3 3 3 3 3 3 3 3 3 3 3 3 3 3 3 3 3 3 3 3 3 3 3 3 3 3 3 3 3 3 3 3 3 3 3 3 3 3 3 3 3 3 3 3 3 3 3 3 3 3 3 3 3 3 3 3 3 3 3 3 3 3 3 3 3 3 3 3 3 3 3 3 3 3 3 3 3 3 3 3 3 3 3 3 3 3 3 3 3 3 3 3 3 3 3 3 3 3 3 3 </DataArray>
</Cells>
<PointData  Scalars="f_16"> 
<DataArray  type="Float64"  Name="f_16"  format="ascii">0.0000000000000000e+00  8.2408145687666890e+21  1.6473496281980168e+22  2.4689920311711635e+22  3.2881977877345709e+22  4.1041584249406520e+22  4.9160686729609423e+22  5.7231272599250316e+22  6.5245377028076912e+22  7.3195090935824903e+22  8.1072568798650441e+22  8.8870036392744548e+22  9.6579798467478402e+22  1.0419424634049903e+23  1.1170586540727236e+23  1.1910724255765693e+23  1.2639107349218360e+23  1.3355016993081717e+23  1.4057746670708343e+23  1.4746602874055865e+23  1.5420905788084040e+23  1.6079989961624714e+23  1.6723204964062734e+23  1.7349916027180117e+23  1.7959504671530588e+23  1.8551369316726800e+23  1.9124925875038696e+23  1.9679608327718052e+23  2.0214869283481171e+23  2.0730180518599698e+23  2.1225033498067530e+23  2.1698939877330586e+23  2.2151431984085557e+23  2.2582063279673252e+23  2.2990408799612627e+23  2.3376065572841937e+23  2.3738653019254550e+23  2.4077813325138566e+23  2.4393211796150851e+23  2.4684537187478517e+23  2.4951502010863329e+23  2.5193842818187121e+23  2.5411320461339659e+23  2.5603720328113462e+23  2.5770852553893910e+23  2.5912552208936608e+23  2.6028679461048065e+23  2.6119119713509881e+23  2.6183783718110998e+23  2.6222607663176978e+23  2.6235553236509886e+23  2.6222607663176961e+23  2.6183783718110968e+23  2.6119119713509841e+23  2.6028679461048018e+23  2.5912552208936551e+23  2.5770852553893850e+23  2.5603720328113395e+23  2.5411320461339585e+23  2.5193842818187037e+23  2.4951502010863228e+23  2.4684537187478407e+23  2.4393211796150727e+23  2.4077813325138432e+23  2.3738653019254399e+23  2.3376065572841779e+23  2.2990408799612462e+23  2.2582063279673078e+23  2.2151431984085376e+23  2.1698939877330385e+23  2.1225033498067298e+23  2.0730180518599456e+23  2.0214869283480909e+23  1.9679608327717790e+23  1.9124925875038445e+23  1.8551369316726548e+23  1.7959504671530343e+23  1.7349916027179885e+23  1.6723204964062499e+23  1.6079989961624486e+23  1.5420905788083822e+23  1.4746602874055650e+23  1.4057746670708144e+23  1.3355016993081540e+23  1.2639107349218191e+23  1.1910724255765540e+23  1.1170586540727104e+23  1.0419424634049785e+23  9.6579798467477361e+22  8.8870036392743725e+22  8.1072568798649703e+22  7.3195090935824249e+22  6.5245377028076434e+22  5.7231272599249897e+22  4.9160686729609053e+22  4.1041584249406310e+22  3.2881977877345516e+22  2.4689920311711471e+22  1.6473496281980135e+22  8.2408145687666722e+21  0.0000000000000000e+00  </DataArray> 
</PointData> 
</Piece>
</UnstructuredGrid>
</VTKFile>