<?xml version="1.0"?>
<VTKFile type="UnstructuredGrid"  version="0.1"  >
<UnstructuredGrid>
<Piece  NumberOfPoints="101" NumberOfCells="100">
<Points>
<DataArray  type="Float64"  NumberOfComponents="3"  format="ascii">0 0 0  3e-08 0 0  6.000000000000001e-08 0 0  9e-08 0 0  1.2e-07 0 0  1.5e-07 0 0  1.8e-07 0 0  2.1e-07 0 0  2.4e-07 0 0  2.7e-07 0 0  3e-07 0 0  3.3e-07 0 0  3.6e-07 0 0  3.9e-07 0 0  4.200000000000001e-07 0 0  4.5e-07 0 0  4.800000000000001e-07 0 0  5.1e-07 0 0  5.4e-07 0 0  5.7e-07 0 0  6e-07 0 0  6.3e-07 0 0  6.6e-07 0 0  6.9e-07 0 0  7.2e-07 0 0  7.5e-07 0 0  7.799999999999999e-07 0 0  8.100000000000001e-07 0 0  8.400000000000001e-07 0 0  8.7e-07 0 0  9.000000000000001e-07 0 0  9.3e-07 0 0  9.600000000000001e-07 0 0  9.900000000000001e-07 0 0  1.02e-06 0 0  1.05e-06 0 0  1.08e-06 0 0  1.11e-06 0 0  1.14e-06 0 0  1.17e-06 0 0  1.2e-06 0 0  1.23e-06 0 0  1.26e-06 0 0  1.29e-06 0 0  1.32e-06 0 0  1.35e-06 0 0  1.38e-06 0 0  1.41e-06 0 0  1.44e-06 0 0  1.47e-06 0 0  1.5e-06 0 0  1.53e-06 0 0  1.56e-06 0 0  1.59e-06 0 0  1.62e-06 0 0  1.65e-06 0 0  1.68e-06 0 0  1.71e-06 0 0  1.74e-06 0 0  1.77e-06 0 0  1.8e-06 0 0  1.83e-06 0 0  1.86e-06 0 0  1.89e-06 0 0  1.92e-06 0 0  1.95e-06 0 0  1.98e-06 0 0  2.01e-06 0 0  2.04e-06 0 0  2.07e-06 0 0  2.1e-06 0 0  2.13e-06 0 0  2.16e-06 0 0  2.19e-06 0 0  2.22e-06 0 0  2.25e-06 0 0  2.28e-06 0 0  2.31e-06 0 0  2.34e-06 0 0  2.37e-06 0 0  2.4e-06 0 0  2.43e-06 0 0  2.46e-06 0 0  2.49e-06 0 0  2.52e-06 0 0  2.55e-06 0 0  2.58e-06 0 0  2.61e-06 0 0  2.64e-06 0 0  2.67e-06 0 0  2.7e-06 0 0  2.73e-06 0 0  2.76e-06 0 0  2.79e-06 0 0  2.82e-06 0 0  2.85e-06 0 0  2.88e-06 0 0  2.91e-06 0 0  2.94e-06 0 0  2.97e-06 0 0  3e-06 0 0  </DataArray>
</Points>
<Cells>
<DataArray  type="UInt32"  Name="connectivity"  format="ascii">0 1  1 2  2 3  3 4  4 5  5 6  6 7  7 8  8 9  9 10  10 11  11 12  12 13  13 14  14 15  15 16  16 17  17 18  18 19  19 20  20 21  21 22  22 23  23 24  24 25  25 26  26 27  27 28  28 29  29 30  30 31  31 32  32 33  33 34  34 35  35 36  36 37  37 38  38 39  39 40  40 41  41 42  42 43  43 44  44 45  45 46  46 47  47 48  48 49  49 50  50 51  51 52  52 53  53 54  54 55  55 56  56 57  57 58  58 59  59 60  60 61  61 62  62 63  63 64  64 65  65 66  66 67  67 68  68 69  69 70  70 71  71 72  72 73  73 74  74 75  75 76  76 77  77 78  78 79  79 80  80 81  81 82  82 83  83 84  84 85  85 86  86 87  87 88  88 89  89 90  90 91  91 92  92 93  93 94  94 95  95 96  96 97  97 98  98 99  99 100  </DataArray>
<DataArray  type="UInt32"  Name="offsets"  format="ascii">2 4 6 8 10 12 14 16 18 20 22 24 26 28 30 32 34 36 38 40 42 44 46 48 50 52 54 56 58 60 62 64 66 68 70 72 74 76 78 80 82 84 86 88 90 92 94 96 98 100 102 104 106 108 110 112 114 116 118 120 122 124 126 128 130 132 134 136 138 140 142 144 146 148 150 152 154 156 158 160 162 164 166 168 170 172 174 176 178 180 182 184 186 188 190 192 194 196 198 200 </DataArray>
<DataArray  type="UInt8"  Name="types"  format="ascii">3 3 3 3 3 3 3 3 3 3 3 3 3 3 3 3 3 3 3 3 3 3 3 3 3 3 3 3 3 3 3 3 3 3 3 3 3 3 3 3 3 3 3 3 3 3 3 3 3 3 3 3 3 3 3 3 3 3 3 3 3 3 3 3 3 3 3 3 3 3 3 3 3 3 3 3 3 3 3 3 3 3 3 3 3 3 3 3 3 3 3 3 3 3 3 3 3 3 3 3 </DataArray>
</Cells>
<PointData  Scalars="f_16"> 
<DataArray  type="Float64"  Name="f_16"  format="ascii">0.0000000000000000e+00  2.7336692047296667e+22  5.4646060315916259e+22  8.1900811082194416e+22  1.0907371067488628e+23  1.3613761535767917e+23  1.6306550104015753e+23  1.8983049276150784e+23  2.1640589389249594e+23  2.4276521500278089e+23  2.6888220234243552e+23  2.9473086588861022e+23  3.2028550691057892e+23  3.4552074500892906e+23  3.7041154458737431e+23  3.9493324071855521e+23  4.1906156436823124e+23  4.4277266694541246e+23  4.6604314414923158e+23  4.8885005908665739e+23  5.1117096463850035e+23  5.3298392505451121e+23  5.5426753676170703e+23  5.7500094837334902e+23  5.9516387988921580e+23  6.1473664108093422e+23  6.3370014905913716e+23  6.5203594502208293e+23  6.6972621018806627e+23  6.8675378091648960e+23  7.0310216302477771e+23  7.1875554531045307e+23  7.3369881228958179e+23  7.4791755616447233e+23  7.6139808803494085e+23  7.7412744836863936e+23  7.8609341674688526e+23  7.9728452090312159e+23  8.0769004507157313e+23  8.1730003766387473e+23  8.2610531829139503e+23  8.3409748415071212e+23  8.4126891578920598e+23  8.4761278226701710e+23  8.5312304573072441e+23  8.5779446541299657e+23  8.6162260107121480e+23  8.6460381587665248e+23  8.6673527876424244e+23  8.6801496625130909e+23  8.6844166373187276e+23  8.6801496625130842e+23  8.6673527876424150e+23  8.6460381587665127e+23  8.6162260107121319e+23  8.5779446541299455e+23  8.5312304573072240e+23  8.4761278226701495e+23  8.4126891578920357e+23  8.3409748415070957e+23  8.2610531829139181e+23  8.1730003766387111e+23  8.0769004507156897e+23  7.9728452090311716e+23  7.8609341674688070e+23  7.7412744836863440e+23  7.6139808803493561e+23  7.4791755616446683e+23  7.3369881228957602e+23  7.1875554531044676e+23  7.0310216302477059e+23  6.8675378091648195e+23  6.6972621018805822e+23  6.5203594502207461e+23  6.3370014905912938e+23  6.1473664108092631e+23  5.9516387988920808e+23  5.7500094837334157e+23  5.5426753676169958e+23  5.3298392505450403e+23  5.1117096463849358e+23  4.8885005908665068e+23  4.6604314414922527e+23  4.4277266694540682e+23  4.1906156436822587e+23  3.9493324071855038e+23  3.7041154458737009e+23  3.4552074500892530e+23  3.2028550691057550e+23  2.9473086588860747e+23  2.6888220234243307e+23  2.4276521500277871e+23  2.1640589389249436e+23  1.8983049276150643e+23  1.6306550104015635e+23  1.3613761535767846e+23  1.0907371067488562e+23  8.1900811082193879e+22  5.4646060315916158e+22  2.7336692047296617e+22  0.0000000000000000e+00  </DataArray> 
</PointData> 
</Piece>
</UnstructuredGrid>
</VTKFile>