<?xml version="1.0"?>
<VTKFile type="UnstructuredGrid"  version="0.1"  >
<UnstructuredGrid>
<Piece  NumberOfPoints="101" NumberOfCells="100">
<Points>
<DataArray  type="Float64"  NumberOfComponents="3"  format="ascii">0 0 0  3e-08 0 0  6.000000000000001e-08 0 0  9e-08 0 0  1.2e-07 0 0  1.5e-07 0 0  1.8e-07 0 0  2.1e-07 0 0  2.4e-07 0 0  2.7e-07 0 0  3e-07 0 0  3.3e-07 0 0  3.6e-07 0 0  3.9e-07 0 0  4.200000000000001e-07 0 0  4.5e-07 0 0  4.800000000000001e-07 0 0  5.1e-07 0 0  5.4e-07 0 0  5.7e-07 0 0  6e-07 0 0  6.3e-07 0 0  6.6e-07 0 0  6.9e-07 0 0  7.2e-07 0 0  7.5e-07 0 0  7.799999999999999e-07 0 0  8.100000000000001e-07 0 0  8.400000000000001e-07 0 0  8.7e-07 0 0  9.000000000000001e-07 0 0  9.3e-07 0 0  9.600000000000001e-07 0 0  9.900000000000001e-07 0 0  1.02e-06 0 0  1.05e-06 0 0  1.08e-06 0 0  1.11e-06 0 0  1.14e-06 0 0  1.17e-06 0 0  1.2e-06 0 0  1.23e-06 0 0  1.26e-06 0 0  1.29e-06 0 0  1.32e-06 0 0  1.35e-06 0 0  1.38e-06 0 0  1.41e-06 0 0  1.44e-06 0 0  1.47e-06 0 0  1.5e-06 0 0  1.53e-06 0 0  1.56e-06 0 0  1.59e-06 0 0  1.62e-06 0 0  1.65e-06 0 0  1.68e-06 0 0  1.71e-06 0 0  1.74e-06 0 0  1.77e-06 0 0  1.8e-06 0 0  1.83e-06 0 0  1.86e-06 0 0  1.89e-06 0 0  1.92e-06 0 0  1.95e-06 0 0  1.98e-06 0 0  2.01e-06 0 0  2.04e-06 0 0  2.07e-06 0 0  2.1e-06 0 0  2.13e-06 0 0  2.16e-06 0 0  2.19e-06 0 0  2.22e-06 0 0  2.25e-06 0 0  2.28e-06 0 0  2.31e-06 0 0  2.34e-06 0 0  2.37e-06 0 0  2.4e-06 0 0  2.43e-06 0 0  2.46e-06 0 0  2.49e-06 0 0  2.52e-06 0 0  2.55e-06 0 0  2.58e-06 0 0  2.61e-06 0 0  2.64e-06 0 0  2.67e-06 0 0  2.7e-06 0 0  2.73e-06 0 0  2.76e-06 0 0  2.79e-06 0 0  2.82e-06 0 0  2.85e-06 0 0  2.88e-06 0 0  2.91e-06 0 0  2.94e-06 0 0  2.97e-06 0 0  3e-06 0 0  </DataArray>
</Points>
<Cells>
<DataArray  type="UInt32"  Name="connectivity"  format="ascii">0 1  1 2  2 3  3 4  4 5  5 6  6 7  7 8  8 9  9 10  10 11  11 12  12 13  13 14  14 15  15 16  16 17  17 18  18 19  19 20  20 21  21 22  22 23  23 24  24 25  25 26  26 27  27 28  28 29  29 30  30 31  31 32  32 33  33 34  34 35  35 36  36 37  37 38  38 39  39 40  40 41  41 42  42 43  43 44  44 45  45 46  46 47  47 48  48 49  49 50  50 51  51 52  52 53  53 54  54 55  55 56  56 57  57 58  58 59  59 60  60 61  61 62  62 63  63 64  64 65  65 66  66 67  67 68  68 69  69 70  70 71  71 72  72 73  73 74  74 75  75 76  76 77  77 78  78 79  79 80  80 81  81 82  82 83  83 84  84 85  85 86  86 87  87 88  88 89  89 90  90 91  91 92  92 93  93 94  94 95  95 96  96 97  97 98  98 99  99 100  </DataArray>
<DataArray  type="UInt32"  Name="offsets"  format="ascii">2 4 6 8 10 12 14 16 18 20 22 24 26 28 30 32 34 36 38 40 42 44 46 48 50 52 54 56 58 60 62 64 66 68 70 72 74 76 78 80 82 84 86 88 90 92 94 96 98 100 102 104 106 108 110 112 114 116 118 120 122 124 126 128 130 132 134 136 138 140 142 144 146 148 150 152 154 156 158 160 162 164 166 168 170 172 174 176 178 180 182 184 186 188 190 192 194 196 198 200 </DataArray>
<DataArray  type="UInt8"  Name="types"  format="ascii">3 3 3 3 3 3 3 3 3 3 3 3 3 3 3 3 3 3 3 3 3 3 3 3 3 3 3 3 3 3 3 3 3 3 3 3 3 3 3 3 3 3 3 3 3 3 3 3 3 3 3 3 3 3 3 3 3 3 3 3 3 3 3 3 3 3 3 3 3 3 3 3 3 3 3 3 3 3 3 3 3 3 3 3 3 3 3 3 3 3 3 3 3 3 3 3 3 3 3 3 </DataArray>
</Cells>
<PointData  Scalars="f_16"> 
<DataArray  type="Float64"  Name="f_16"  format="ascii">0.0000000000000000e+00  2.1489497602203312e+22  4.2957712774403799e+22  6.4383384755684868e+22  8.5745296095978281e+22  1.0702229424325807e+23  1.2819331304908310e+23  1.4923739416564323e+23  1.7013370830778064e+23  1.9086157635384825e+23  2.1140049025972982e+23  2.3173013376087844e+23  2.5183040283782516e+23  2.7168142592126914e+23  2.9126358381357261e+23  3.1055752930425024e+23  3.2954420645785486e+23  3.4820486955351191e+23  3.6652110165624655e+23  3.8447483280116044e+23  4.0204835777245982e+23  4.1922435346029445e+23  4.3598589577933383e+23  4.5231647613398910e+23  4.6820001741616059e+23  4.8362088952236158e+23  4.9856392437803100e+23  5.1301443045778883e+23  5.2695820679130711e+23  5.4038155644537052e+23  5.5327129947356238e+23  5.6561478532584310e+23  5.7739990471108511e+23  5.8861510090637886e+23  5.9924938050763904e+23  6.0929232361670175e+23  6.1873409346072471e+23  6.2756544544027632e+23  6.3577773560301684e+23  6.4336292854035563e+23  6.5031360470489420e+23  6.5662296714684183e+23  6.6228484766792953e+23  6.6729371239163645e+23  6.7164466674879263e+23  6.7533345987783218e+23  6.7835648843914703e+23  6.8071079984313107e+23  6.8239409489161939e+23  6.8340472983251606e+23  6.8374171782747039e+23  6.8340472983251552e+23  6.8239409489161858e+23  6.8071079984313013e+23  6.7835648843914582e+23  6.7533345987783084e+23  6.7164466674879102e+23  6.6729371239163484e+23  6.6228484766792765e+23  6.5662296714683982e+23  6.5031360470489165e+23  6.4336292854035267e+23  6.3577773560301335e+23  6.2756544544027269e+23  6.1873409346072082e+23  6.0929232361669773e+23  5.9924938050763481e+23  5.8861510090637429e+23  5.7739990471108021e+23  5.6561478532583787e+23  5.5327129947355661e+23  5.4038155644536441e+23  5.2695820679130054e+23  5.1301443045778225e+23  4.9856392437802462e+23  4.8362088952235507e+23  4.6820001741615422e+23  4.5231647613398300e+23  4.3598589577932759e+23  4.1922435346028841e+23  4.0204835777245425e+23  3.8447483280115487e+23  3.6652110165624138e+23  3.4820486955350728e+23  3.2954420645785043e+23  3.1055752930424628e+23  2.9126358381356919e+23  2.7168142592126606e+23  2.5183040283782238e+23  2.3173013376087620e+23  2.1140049025972778e+23  1.9086157635384641e+23  1.7013370830777930e+23  1.4923739416564207e+23  1.2819331304908210e+23  1.0702229424325748e+23  8.5745296095977727e+22  6.4383384755684407e+22  4.2957712774403681e+22  2.1489497602203262e+22  0.0000000000000000e+00  </DataArray> 
</PointData> 
</Piece>
</UnstructuredGrid>
</VTKFile>