<?xml version="1.0"?>
<VTKFile type="UnstructuredGrid"  version="0.1"  >
<UnstructuredGrid>
<Piece  NumberOfPoints="101" NumberOfCells="100">
<Points>
<DataArray  type="Float64"  NumberOfComponents="3"  format="ascii">0 0 0  3e-08 0 0  6.000000000000001e-08 0 0  9e-08 0 0  1.2e-07 0 0  1.5e-07 0 0  1.8e-07 0 0  2.1e-07 0 0  2.4e-07 0 0  2.7e-07 0 0  3e-07 0 0  3.3e-07 0 0  3.6e-07 0 0  3.9e-07 0 0  4.200000000000001e-07 0 0  4.5e-07 0 0  4.800000000000001e-07 0 0  5.1e-07 0 0  5.4e-07 0 0  5.7e-07 0 0  6e-07 0 0  6.3e-07 0 0  6.6e-07 0 0  6.9e-07 0 0  7.2e-07 0 0  7.5e-07 0 0  7.799999999999999e-07 0 0  8.100000000000001e-07 0 0  8.400000000000001e-07 0 0  8.7e-07 0 0  9.000000000000001e-07 0 0  9.3e-07 0 0  9.600000000000001e-07 0 0  9.900000000000001e-07 0 0  1.02e-06 0 0  1.05e-06 0 0  1.08e-06 0 0  1.11e-06 0 0  1.14e-06 0 0  1.17e-06 0 0  1.2e-06 0 0  1.23e-06 0 0  1.26e-06 0 0  1.29e-06 0 0  1.32e-06 0 0  1.35e-06 0 0  1.38e-06 0 0  1.41e-06 0 0  1.44e-06 0 0  1.47e-06 0 0  1.5e-06 0 0  1.53e-06 0 0  1.56e-06 0 0  1.59e-06 0 0  1.62e-06 0 0  1.65e-06 0 0  1.68e-06 0 0  1.71e-06 0 0  1.74e-06 0 0  1.77e-06 0 0  1.8e-06 0 0  1.83e-06 0 0  1.86e-06 0 0  1.89e-06 0 0  1.92e-06 0 0  1.95e-06 0 0  1.98e-06 0 0  2.01e-06 0 0  2.04e-06 0 0  2.07e-06 0 0  2.1e-06 0 0  2.13e-06 0 0  2.16e-06 0 0  2.19e-06 0 0  2.22e-06 0 0  2.25e-06 0 0  2.28e-06 0 0  2.31e-06 0 0  2.34e-06 0 0  2.37e-06 0 0  2.4e-06 0 0  2.43e-06 0 0  2.46e-06 0 0  2.49e-06 0 0  2.52e-06 0 0  2.55e-06 0 0  2.58e-06 0 0  2.61e-06 0 0  2.64e-06 0 0  2.67e-06 0 0  2.7e-06 0 0  2.73e-06 0 0  2.76e-06 0 0  2.79e-06 0 0  2.82e-06 0 0  2.85e-06 0 0  2.88e-06 0 0  2.91e-06 0 0  2.94e-06 0 0  2.97e-06 0 0  3e-06 0 0  </DataArray>
</Points>
<Cells>
<DataArray  type="UInt32"  Name="connectivity"  format="ascii">0 1  1 2  2 3  3 4  4 5  5 6  6 7  7 8  8 9  9 10  10 11  11 12  12 13  13 14  14 15  15 16  16 17  17 18  18 19  19 20  20 21  21 22  22 23  23 24  24 25  25 26  26 27  27 28  28 29  29 30  30 31  31 32  32 33  33 34  34 35  35 36  36 37  37 38  38 39  39 40  40 41  41 42  42 43  43 44  44 45  45 46  46 47  47 48  48 49  49 50  50 51  51 52  52 53  53 54  54 55  55 56  56 57  57 58  58 59  59 60  60 61  61 62  62 63  63 64  64 65  65 66  66 67  67 68  68 69  69 70  70 71  71 72  72 73  73 74  74 75  75 76  76 77  77 78  78 79  79 80  80 81  81 82  82 83  83 84  84 85  85 86  86 87  87 88  88 89  89 90  90 91  91 92  92 93  93 94  94 95  95 96  96 97  97 98  98 99  99 100  </DataArray>
<DataArray  type="UInt32"  Name="offsets"  format="ascii">2 4 6 8 10 12 14 16 18 20 22 24 26 28 30 32 34 36 38 40 42 44 46 48 50 52 54 56 58 60 62 64 66 68 70 72 74 76 78 80 82 84 86 88 90 92 94 96 98 100 102 104 106 108 110 112 114 116 118 120 122 124 126 128 130 132 134 136 138 140 142 144 146 148 150 152 154 156 158 160 162 164 166 168 170 172 174 176 178 180 182 184 186 188 190 192 194 196 198 200 </DataArray>
<DataArray  type="UInt8"  Name="types"  format="ascii">3 3 3 3 3 3 3 3 3 3 3 3 3 3 3 3 3 3 3 3 3 3 3 3 3 3 3 3 3 3 3 3 3 3 3 3 3 3 3 3 3 3 3 3 3 3 3 3 3 3 3 3 3 3 3 3 3 3 3 3 3 3 3 3 3 3 3 3 3 3 3 3 3 3 3 3 3 3 3 3 3 3 3 3 3 3 3 3 3 3 3 3 3 3 3 3 3 3 3 3 </DataArray>
</Cells>
<PointData  Scalars="f_16"> 
<DataArray  type="Float64"  Name="f_16"  format="ascii">0.0000000000000000e+00  9.9092108211138234e+22  1.9749451251928159e+23  2.9461447570516729e+23  3.8996381153195158e+23  4.8314543823196093e+23  5.7384145437511500e+23  6.6180257581456531e+23  7.4683878877390823e+23  8.2881108889471491e+23  9.0762418935895694e+23  9.8322009317921733e+23  1.0555724355379829e+24  1.1246815117713120e+24  1.1905699153361739e+24  1.2532787179692845e+24  1.3128641313237347e+24  1.3693945957353706e+24  1.4229482474936379e+24  1.4736107211344976e+24  1.5214732478932194e+24  1.5666310156038530e+24  1.6091817590565771e+24  1.6492245531660529e+24  1.6868587843013275e+24  1.7221832778151128e+24  1.7552955622183824e+24  1.7862912526032080e+24  1.8152635378477981e+24  1.8423027578657097e+24  1.8674960587066486e+24  1.8909271146978420e+24  1.9126759080493453e+24  1.9328185574490071e+24  1.9514271881568198e+24  1.9685698369863360e+24  1.9843103863438999e+24  1.9987085221946728e+24  2.0118197114469070e+24  2.0236951948009083e+24  2.0343819916040311e+24  2.0439229136946444e+24  2.0523565856124584e+24  2.0597174689054253e+24  2.0660358885798169e+24  2.0713380600246026e+24  2.0756461149982878e+24  2.0789781254998197e+24  2.0813481245587490e+24  2.0827661231769930e+24  2.0832381228384983e+24  2.0827661231769919e+24  2.0813481245587473e+24  2.0789781254998178e+24  2.0756461149982857e+24  2.0713380600245999e+24  2.0660358885798142e+24  2.0597174689054229e+24  2.0523565856124562e+24  2.0439229136946423e+24  2.0343819916040276e+24  2.0236951948009045e+24  2.0118197114469022e+24  1.9987085221946675e+24  1.9843103863438938e+24  1.9685698369863295e+24  1.9514271881568134e+24  1.9328185574490007e+24  1.9126759080493383e+24  1.8909271146978337e+24  1.8674960587066389e+24  1.8423027578656989e+24  1.8152635378477861e+24  1.7862912526031956e+24  1.7552955622183709e+24  1.7221832778151013e+24  1.6868587843013165e+24  1.6492245531660424e+24  1.6091817590565666e+24  1.5666310156038430e+24  1.5214732478932103e+24  1.4736107211344887e+24  1.4229482474936304e+24  1.3693945957353645e+24  1.3128641313237287e+24  1.2532787179692800e+24  1.1905699153361708e+24  1.1246815117713100e+24  1.0555724355379815e+24  9.8322009317921720e+23  9.0762418935895707e+23  8.2881108889471505e+23  7.4683878877390971e+23  6.6180257581456665e+23  5.7384145437511607e+23  4.8314543823196294e+23  3.8996381153195285e+23  2.9461447570516810e+23  1.9749451251928300e+23  9.9092108211138972e+22  0.0000000000000000e+00  </DataArray> 
</PointData> 
</Piece>
</UnstructuredGrid>
</VTKFile>