<?xml version="1.0"?>
<VTKFile type="UnstructuredGrid"  version="0.1"  >
<UnstructuredGrid>
<Piece  NumberOfPoints="101" NumberOfCells="100">
<Points>
<DataArray  type="Float64"  NumberOfComponents="3"  format="ascii">0 0 0  3e-08 0 0  6.000000000000001e-08 0 0  9e-08 0 0  1.2e-07 0 0  1.5e-07 0 0  1.8e-07 0 0  2.1e-07 0 0  2.4e-07 0 0  2.7e-07 0 0  3e-07 0 0  3.3e-07 0 0  3.6e-07 0 0  3.9e-07 0 0  4.200000000000001e-07 0 0  4.5e-07 0 0  4.800000000000001e-07 0 0  5.1e-07 0 0  5.4e-07 0 0  5.7e-07 0 0  6e-07 0 0  6.3e-07 0 0  6.6e-07 0 0  6.9e-07 0 0  7.2e-07 0 0  7.5e-07 0 0  7.799999999999999e-07 0 0  8.100000000000001e-07 0 0  8.400000000000001e-07 0 0  8.7e-07 0 0  9.000000000000001e-07 0 0  9.3e-07 0 0  9.600000000000001e-07 0 0  9.900000000000001e-07 0 0  1.02e-06 0 0  1.05e-06 0 0  1.08e-06 0 0  1.11e-06 0 0  1.14e-06 0 0  1.17e-06 0 0  1.2e-06 0 0  1.23e-06 0 0  1.26e-06 0 0  1.29e-06 0 0  1.32e-06 0 0  1.35e-06 0 0  1.38e-06 0 0  1.41e-06 0 0  1.44e-06 0 0  1.47e-06 0 0  1.5e-06 0 0  1.53e-06 0 0  1.56e-06 0 0  1.59e-06 0 0  1.62e-06 0 0  1.65e-06 0 0  1.68e-06 0 0  1.71e-06 0 0  1.74e-06 0 0  1.77e-06 0 0  1.8e-06 0 0  1.83e-06 0 0  1.86e-06 0 0  1.89e-06 0 0  1.92e-06 0 0  1.95e-06 0 0  1.98e-06 0 0  2.01e-06 0 0  2.04e-06 0 0  2.07e-06 0 0  2.1e-06 0 0  2.13e-06 0 0  2.16e-06 0 0  2.19e-06 0 0  2.22e-06 0 0  2.25e-06 0 0  2.28e-06 0 0  2.31e-06 0 0  2.34e-06 0 0  2.37e-06 0 0  2.4e-06 0 0  2.43e-06 0 0  2.46e-06 0 0  2.49e-06 0 0  2.52e-06 0 0  2.55e-06 0 0  2.58e-06 0 0  2.61e-06 0 0  2.64e-06 0 0  2.67e-06 0 0  2.7e-06 0 0  2.73e-06 0 0  2.76e-06 0 0  2.79e-06 0 0  2.82e-06 0 0  2.85e-06 0 0  2.88e-06 0 0  2.91e-06 0 0  2.94e-06 0 0  2.97e-06 0 0  3e-06 0 0  </DataArray>
</Points>
<Cells>
<DataArray  type="UInt32"  Name="connectivity"  format="ascii">0 1  1 2  2 3  3 4  4 5  5 6  6 7  7 8  8 9  9 10  10 11  11 12  12 13  13 14  14 15  15 16  16 17  17 18  18 19  19 20  20 21  21 22  22 23  23 24  24 25  25 26  26 27  27 28  28 29  29 30  30 31  31 32  32 33  33 34  34 35  35 36  36 37  37 38  38 39  39 40  40 41  41 42  42 43  43 44  44 45  45 46  46 47  47 48  48 49  49 50  50 51  51 52  52 53  53 54  54 55  55 56  56 57  57 58  58 59  59 60  60 61  61 62  62 63  63 64  64 65  65 66  66 67  67 68  68 69  69 70  70 71  71 72  72 73  73 74  74 75  75 76  76 77  77 78  78 79  79 80  80 81  81 82  82 83  83 84  84 85  85 86  86 87  87 88  88 89  89 90  90 91  91 92  92 93  93 94  94 95  95 96  96 97  97 98  98 99  99 100  </DataArray>
<DataArray  type="UInt32"  Name="offsets"  format="ascii">2 4 6 8 10 12 14 16 18 20 22 24 26 28 30 32 34 36 38 40 42 44 46 48 50 52 54 56 58 60 62 64 66 68 70 72 74 76 78 80 82 84 86 88 90 92 94 96 98 100 102 104 106 108 110 112 114 116 118 120 122 124 126 128 130 132 134 136 138 140 142 144 146 148 150 152 154 156 158 160 162 164 166 168 170 172 174 176 178 180 182 184 186 188 190 192 194 196 198 200 </DataArray>
<DataArray  type="UInt8"  Name="types"  format="ascii">3 3 3 3 3 3 3 3 3 3 3 3 3 3 3 3 3 3 3 3 3 3 3 3 3 3 3 3 3 3 3 3 3 3 3 3 3 3 3 3 3 3 3 3 3 3 3 3 3 3 3 3 3 3 3 3 3 3 3 3 3 3 3 3 3 3 3 3 3 3 3 3 3 3 3 3 3 3 3 3 3 3 3 3 3 3 3 3 3 3 3 3 3 3 3 3 3 3 3 3 </DataArray>
</Cells>
<PointData  Scalars="f_16"> 
<DataArray  type="Float64"  Name="f_16"  format="ascii">0.0000000000000000e+00  3.4881050353539589e+22  6.9726068198748849e+22  1.0449907124907004e+23  1.3916417747181323e+23  1.7368565474260901e+23  2.0802796993765312e+23  2.4215583728421678e+23  2.7603426579650415e+23  3.0962860563202394e+23  3.4290459321309227e+23  3.7582839496877837e+23  4.0836664956439643e+23  4.4048650849839222e+23  4.7215567496001124e+23  5.0334244085530232e+23  5.3401572192364970e+23  5.6414509088196043e+23  5.9370080854871857e+23  6.2265385291517889e+23  6.5097594614587632e+23  6.7863957950522420e+23  7.0561803622112918e+23  7.3188541231015504e+23  7.5741663540169752e+23  7.8218748161079730e+23  8.0617459052053200e+23  8.2935547834531754e+23  8.5170854935583878e+23  8.7321310565470543e+23  8.9384935539920141e+23  9.1359841957368514e+23  9.3244233741926514e+23  9.5036407063230860e+23  9.6734750644616504e+23  9.8337745971218754e+23  9.9843967409675885e+23  1.0125208225105738e+24  1.0256085068849600e+24  1.0376912574075482e+24  1.0487585313261917e+24  1.0588007114257254e+24  1.0678091042769981e+24  1.0757759383516832e+24  1.0826943620896981e+24  1.0885584419987426e+24  1.0933631608575399e+24  1.0971044160859000e+24  1.0997790183358170e+24  1.1013846903484841e+24  1.1019200661124793e+24  1.1013846903484834e+24  1.0997790183358159e+24  1.0971044160858986e+24  1.0933631608575380e+24  1.0885584419987405e+24  1.0826943620896955e+24  1.0757759383516806e+24  1.0678091042769955e+24  1.0588007114257226e+24  1.0487585313261883e+24  1.0376912574075439e+24  1.0256085068849551e+24  1.0125208225105688e+24  9.9843967409675335e+23  9.8337745971218177e+23  9.6734750644615887e+23  9.5036407063230216e+23  9.3244233741925816e+23  9.1359841957367749e+23  8.9384935539919282e+23  8.7321310565469631e+23  8.5170854935582884e+23  8.2935547834530734e+23  8.0617459052052220e+23  7.8218748161078737e+23  7.5741663540168786e+23  7.3188541231014578e+23  7.0561803622111992e+23  6.7863957950521520e+23  6.5097594614586787e+23  6.2265385291517070e+23  5.9370080854871092e+23  5.6414509088195352e+23  5.3401572192364312e+23  5.0334244085529641e+23  4.7215567496000627e+23  4.4048650849838772e+23  4.0836664956439240e+23  3.7582839496877522e+23  3.4290459321308946e+23  3.0962860563202152e+23  2.7603426579650250e+23  2.4215583728421530e+23  2.0802796993765188e+23  1.7368565474260830e+23  1.3916417747181257e+23  1.0449907124906943e+23  6.9726068198748782e+22  3.4881050353539551e+22  0.0000000000000000e+00  </DataArray> 
</PointData> 
</Piece>
</UnstructuredGrid>
</VTKFile>