<?xml version="1.0"?>
<VTKFile type="UnstructuredGrid"  version="0.1"  >
<UnstructuredGrid>
<Piece  NumberOfPoints="101" NumberOfCells="100">
<Points>
<DataArray  type="Float64"  NumberOfComponents="3"  format="ascii">0 0 0  3e-08 0 0  6.000000000000001e-08 0 0  9e-08 0 0  1.2e-07 0 0  1.5e-07 0 0  1.8e-07 0 0  2.1e-07 0 0  2.4e-07 0 0  2.7e-07 0 0  3e-07 0 0  3.3e-07 0 0  3.6e-07 0 0  3.9e-07 0 0  4.200000000000001e-07 0 0  4.5e-07 0 0  4.800000000000001e-07 0 0  5.1e-07 0 0  5.4e-07 0 0  5.7e-07 0 0  6e-07 0 0  6.3e-07 0 0  6.6e-07 0 0  6.9e-07 0 0  7.2e-07 0 0  7.5e-07 0 0  7.799999999999999e-07 0 0  8.100000000000001e-07 0 0  8.400000000000001e-07 0 0  8.7e-07 0 0  9.000000000000001e-07 0 0  9.3e-07 0 0  9.600000000000001e-07 0 0  9.900000000000001e-07 0 0  1.02e-06 0 0  1.05e-06 0 0  1.08e-06 0 0  1.11e-06 0 0  1.14e-06 0 0  1.17e-06 0 0  1.2e-06 0 0  1.23e-06 0 0  1.26e-06 0 0  1.29e-06 0 0  1.32e-06 0 0  1.35e-06 0 0  1.38e-06 0 0  1.41e-06 0 0  1.44e-06 0 0  1.47e-06 0 0  1.5e-06 0 0  1.53e-06 0 0  1.56e-06 0 0  1.59e-06 0 0  1.62e-06 0 0  1.65e-06 0 0  1.68e-06 0 0  1.71e-06 0 0  1.74e-06 0 0  1.77e-06 0 0  1.8e-06 0 0  1.83e-06 0 0  1.86e-06 0 0  1.89e-06 0 0  1.92e-06 0 0  1.95e-06 0 0  1.98e-06 0 0  2.01e-06 0 0  2.04e-06 0 0  2.07e-06 0 0  2.1e-06 0 0  2.13e-06 0 0  2.16e-06 0 0  2.19e-06 0 0  2.22e-06 0 0  2.25e-06 0 0  2.28e-06 0 0  2.31e-06 0 0  2.34e-06 0 0  2.37e-06 0 0  2.4e-06 0 0  2.43e-06 0 0  2.46e-06 0 0  2.49e-06 0 0  2.52e-06 0 0  2.55e-06 0 0  2.58e-06 0 0  2.61e-06 0 0  2.64e-06 0 0  2.67e-06 0 0  2.7e-06 0 0  2.73e-06 0 0  2.76e-06 0 0  2.79e-06 0 0  2.82e-06 0 0  2.85e-06 0 0  2.88e-06 0 0  2.91e-06 0 0  2.94e-06 0 0  2.97e-06 0 0  3e-06 0 0  </DataArray>
</Points>
<Cells>
<DataArray  type="UInt32"  Name="connectivity"  format="ascii">0 1  1 2  2 3  3 4  4 5  5 6  6 7  7 8  8 9  9 10  10 11  11 12  12 13  13 14  14 15  15 16  16 17  17 18  18 19  19 20  20 21  21 22  22 23  23 24  24 25  25 26  26 27  27 28  28 29  29 30  30 31  31 32  32 33  33 34  34 35  35 36  36 37  37 38  38 39  39 40  40 41  41 42  42 43  43 44  44 45  45 46  46 47  47 48  48 49  49 50  50 51  51 52  52 53  53 54  54 55  55 56  56 57  57 58  58 59  59 60  60 61  61 62  62 63  63 64  64 65  65 66  66 67  67 68  68 69  69 70  70 71  71 72  72 73  73 74  74 75  75 76  76 77  77 78  78 79  79 80  80 81  81 82  82 83  83 84  84 85  85 86  86 87  87 88  88 89  89 90  90 91  91 92  92 93  93 94  94 95  95 96  96 97  97 98  98 99  99 100  </DataArray>
<DataArray  type="UInt32"  Name="offsets"  format="ascii">2 4 6 8 10 12 14 16 18 20 22 24 26 28 30 32 34 36 38 40 42 44 46 48 50 52 54 56 58 60 62 64 66 68 70 72 74 76 78 80 82 84 86 88 90 92 94 96 98 100 102 104 106 108 110 112 114 116 118 120 122 124 126 128 130 132 134 136 138 140 142 144 146 148 150 152 154 156 158 160 162 164 166 168 170 172 174 176 178 180 182 184 186 188 190 192 194 196 198 200 </DataArray>
<DataArray  type="UInt8"  Name="types"  format="ascii">3 3 3 3 3 3 3 3 3 3 3 3 3 3 3 3 3 3 3 3 3 3 3 3 3 3 3 3 3 3 3 3 3 3 3 3 3 3 3 3 3 3 3 3 3 3 3 3 3 3 3 3 3 3 3 3 3 3 3 3 3 3 3 3 3 3 3 3 3 3 3 3 3 3 3 3 3 3 3 3 3 3 3 3 3 3 3 3 3 3 3 3 3 3 3 3 3 3 3 3 </DataArray>
</Cells>
<PointData  Scalars="f_16"> 
<DataArray  type="Float64"  Name="f_16"  format="ascii">0.0000000000000000e+00  5.9127427595959468e+20  1.1819650355942172e+21  1.7714893384390599e+21  2.3592653951813385e+21  2.9447131418161027e+21  3.5272548120993810e+21  4.1063155077337040e+21  4.6813237657233182e+21  5.2517121223391707e+21  5.8169176731370956e+21  6.3763826284765444e+21  6.9295548639916138e+21  7.4758884654711413e+21  8.0148442676101172e+21  8.5458903861007483e+21  9.0685027425380613e+21  9.5821655816220002e+21  1.0086371980145657e+22  1.0580624347267271e+22  1.1064434915572298e+22  1.1537326222440982e+22  1.1998831581246312e+22  1.2448495541917361e+22  1.2885874340413544e+22  1.3310536336666131e+22  1.3722062440554891e+22  1.4120046525499438e+22  1.4504095829257141e+22  1.4873831341532029e+22  1.5228888178012203e+22  1.5568915940466600e+22  1.5893579062545742e+22  1.6202557140945194e+22  1.6495545251604963e+22  1.6772254250632720e+22  1.7032411059653905e+22  1.7275758935307144e+22  1.7502057722618919e+22  1.7711084092007540e+22  1.7902631759682493e+22  1.8076511691221619e+22  1.8232552288125276e+22  1.8370599557163335e+22  1.8490517262347910e+22  1.8592187059381826e+22  1.8675508612450157e+22  1.8740399693239564e+22  1.8786796262087704e+22  1.8814652531182657e+22  1.8823941009749943e+22  1.8814652531182641e+22  1.8786796262087683e+22  1.8740399693239534e+22  1.8675508612450124e+22  1.8592187059381786e+22  1.8490517262347866e+22  1.8370599557163288e+22  1.8232552288125224e+22  1.8076511691221563e+22  1.7902631759682426e+22  1.7711084092007463e+22  1.7502057722618829e+22  1.7275758935307046e+22  1.7032411059653796e+22  1.6772254250632600e+22  1.6495545251604839e+22  1.6202557140945064e+22  1.5893579062545605e+22  1.5568915940466454e+22  1.5228888178012042e+22  1.4873831341531859e+22  1.4504095829256959e+22  1.4120046525499253e+22  1.3722062440554710e+22  1.3310536336665949e+22  1.2885874340413363e+22  1.2448495541917189e+22  1.1998831581246140e+22  1.1537326222440816e+22  1.1064434915572139e+22  1.0580624347267116e+22  1.0086371980145513e+22  9.5821655816218702e+21  9.0685027425379376e+21  8.5458903861006361e+21  8.0148442676100208e+21  7.4758884654710543e+21  6.9295548639915362e+21  6.3763826284764814e+21  5.8169176731370379e+21  5.2517121223391204e+21  4.6813237657232815e+21  4.1063155077336709e+21  3.5272548120993527e+21  2.9447131418160860e+21  2.3592653951813230e+21  1.7714893384390473e+21  1.1819650355942145e+21  5.9127427595959324e+20  0.0000000000000000e+00  </DataArray> 
</PointData> 
</Piece>
</UnstructuredGrid>
</VTKFile>