<?xml version="1.0"?>
<VTKFile type="UnstructuredGrid"  version="0.1"  >
<UnstructuredGrid>
<Piece  NumberOfPoints="101" NumberOfCells="100">
<Points>
<DataArray  type="Float64"  NumberOfComponents="3"  format="ascii">0 0 0  3e-08 0 0  6.000000000000001e-08 0 0  9e-08 0 0  1.2e-07 0 0  1.5e-07 0 0  1.8e-07 0 0  2.1e-07 0 0  2.4e-07 0 0  2.7e-07 0 0  3e-07 0 0  3.3e-07 0 0  3.6e-07 0 0  3.9e-07 0 0  4.200000000000001e-07 0 0  4.5e-07 0 0  4.800000000000001e-07 0 0  5.1e-07 0 0  5.4e-07 0 0  5.7e-07 0 0  6e-07 0 0  6.3e-07 0 0  6.6e-07 0 0  6.9e-07 0 0  7.2e-07 0 0  7.5e-07 0 0  7.799999999999999e-07 0 0  8.100000000000001e-07 0 0  8.400000000000001e-07 0 0  8.7e-07 0 0  9.000000000000001e-07 0 0  9.3e-07 0 0  9.600000000000001e-07 0 0  9.900000000000001e-07 0 0  1.02e-06 0 0  1.05e-06 0 0  1.08e-06 0 0  1.11e-06 0 0  1.14e-06 0 0  1.17e-06 0 0  1.2e-06 0 0  1.23e-06 0 0  1.26e-06 0 0  1.29e-06 0 0  1.32e-06 0 0  1.35e-06 0 0  1.38e-06 0 0  1.41e-06 0 0  1.44e-06 0 0  1.47e-06 0 0  1.5e-06 0 0  1.53e-06 0 0  1.56e-06 0 0  1.59e-06 0 0  1.62e-06 0 0  1.65e-06 0 0  1.68e-06 0 0  1.71e-06 0 0  1.74e-06 0 0  1.77e-06 0 0  1.8e-06 0 0  1.83e-06 0 0  1.86e-06 0 0  1.89e-06 0 0  1.92e-06 0 0  1.95e-06 0 0  1.98e-06 0 0  2.01e-06 0 0  2.04e-06 0 0  2.07e-06 0 0  2.1e-06 0 0  2.13e-06 0 0  2.16e-06 0 0  2.19e-06 0 0  2.22e-06 0 0  2.25e-06 0 0  2.28e-06 0 0  2.31e-06 0 0  2.34e-06 0 0  2.37e-06 0 0  2.4e-06 0 0  2.43e-06 0 0  2.46e-06 0 0  2.49e-06 0 0  2.52e-06 0 0  2.55e-06 0 0  2.58e-06 0 0  2.61e-06 0 0  2.64e-06 0 0  2.67e-06 0 0  2.7e-06 0 0  2.73e-06 0 0  2.76e-06 0 0  2.79e-06 0 0  2.82e-06 0 0  2.85e-06 0 0  2.88e-06 0 0  2.91e-06 0 0  2.94e-06 0 0  2.97e-06 0 0  3e-06 0 0  </DataArray>
</Points>
<Cells>
<DataArray  type="UInt32"  Name="connectivity"  format="ascii">0 1  1 2  2 3  3 4  4 5  5 6  6 7  7 8  8 9  9 10  10 11  11 12  12 13  13 14  14 15  15 16  16 17  17 18  18 19  19 20  20 21  21 22  22 23  23 24  24 25  25 26  26 27  27 28  28 29  29 30  30 31  31 32  32 33  33 34  34 35  35 36  36 37  37 38  38 39  39 40  40 41  41 42  42 43  43 44  44 45  45 46  46 47  47 48  48 49  49 50  50 51  51 52  52 53  53 54  54 55  55 56  56 57  57 58  58 59  59 60  60 61  61 62  62 63  63 64  64 65  65 66  66 67  67 68  68 69  69 70  70 71  71 72  72 73  73 74  74 75  75 76  76 77  77 78  78 79  79 80  80 81  81 82  82 83  83 84  84 85  85 86  86 87  87 88  88 89  89 90  90 91  91 92  92 93  93 94  94 95  95 96  96 97  97 98  98 99  99 100  </DataArray>
<DataArray  type="UInt32"  Name="offsets"  format="ascii">2 4 6 8 10 12 14 16 18 20 22 24 26 28 30 32 34 36 38 40 42 44 46 48 50 52 54 56 58 60 62 64 66 68 70 72 74 76 78 80 82 84 86 88 90 92 94 96 98 100 102 104 106 108 110 112 114 116 118 120 122 124 126 128 130 132 134 136 138 140 142 144 146 148 150 152 154 156 158 160 162 164 166 168 170 172 174 176 178 180 182 184 186 188 190 192 194 196 198 200 </DataArray>
<DataArray  type="UInt8"  Name="types"  format="ascii">3 3 3 3 3 3 3 3 3 3 3 3 3 3 3 3 3 3 3 3 3 3 3 3 3 3 3 3 3 3 3 3 3 3 3 3 3 3 3 3 3 3 3 3 3 3 3 3 3 3 3 3 3 3 3 3 3 3 3 3 3 3 3 3 3 3 3 3 3 3 3 3 3 3 3 3 3 3 3 3 3 3 3 3 3 3 3 3 3 3 3 3 3 3 3 3 3 3 3 3 </DataArray>
</Cells>
<PointData  Scalars="f_16"> 
<DataArray  type="Float64"  Name="f_16"  format="ascii">0.0000000000000000e+00  5.1043022017950478e+21  1.0203567065712321e+22  1.5292762225188085e+22  2.0366865251379970e+22  2.5420868609765739e+22  3.0449784602041348e+22  3.5448650288440573e+22  4.0412532385618028e+22  4.5336532135261323e+22  5.0215790138627153e+22  5.5045491152229744e+22  5.9820868839948455e+22  6.4537210476864412e+22  6.9189861600183695e+22  7.3774230602656854e+22  7.8285793263961493e+22  8.2720097215575570e+22  8.7072766334735332e+22  9.1339505063141289e+22  9.5516102646149929e+22  9.9598437288268486e+22  1.0358248022085091e+23  1.0746429967798138e+23  1.1124006477662193e+23  1.1490604929719516e+23  1.1845863536087089e+23  1.2189431699992911e+23  1.2520970361767497e+23  1.2840152333449272e+23  1.3146662621673629e+23  1.3440198738527085e+23  1.3720471000059813e+23  1.3987202812161965e+23  1.4240130943521815e+23  1.4479005785396320e+23  1.4703591597937824e+23  1.4913666742833908e+23  1.5109023902030802e+23  1.5289470282324590e+23  1.5454827805618405e+23  1.5604933284657827e+23  1.5739638584071164e+23  1.5858810766555744e+23  1.5962332224065958e+23  1.6050100793873677e+23  1.6122029859386513e+23  1.6178048435624498e+23  1.6218101239270785e+23  1.6242148743227376e+23  1.6250167215621945e+23  1.6242148743227366e+23  1.6218101239270768e+23  1.6178048435624474e+23  1.6122029859386483e+23  1.6050100793873644e+23  1.5962332224065924e+23  1.5858810766555707e+23  1.5739638584071124e+23  1.5604933284657780e+23  1.5454827805618348e+23  1.5289470282324520e+23  1.5109023902030720e+23  1.4913666742833821e+23  1.4703591597937730e+23  1.4479005785396221e+23  1.4240130943521711e+23  1.3987202812161854e+23  1.3720471000059699e+23  1.3440198738526961e+23  1.3146662621673488e+23  1.2840152333449123e+23  1.2520970361767339e+23  1.2189431699992748e+23  1.1845863536086933e+23  1.1490604929719358e+23  1.1124006477662040e+23  1.0746429967797988e+23  1.0358248022084943e+23  9.9598437288267060e+22  9.5516102646148570e+22  9.1339505063139947e+22  8.7072766334734107e+22  8.2720097215574463e+22  7.8285793263960436e+22  7.3774230602655889e+22  6.9189861600182848e+22  6.4537210476863632e+22  5.9820868839947750e+22  5.5045491152229182e+22  5.0215790138626650e+22  4.5336532135260879e+22  4.0412532385617700e+22  3.5448650288440287e+22  3.0449784602041101e+22  2.5420868609765584e+22  2.0366865251379827e+22  1.5292762225187966e+22  1.0203567065712290e+22  5.1043022017950321e+21  0.0000000000000000e+00  </DataArray> 
</PointData> 
</Piece>
</UnstructuredGrid>
</VTKFile>