<?xml version="1.0"?>
<VTKFile type="UnstructuredGrid"  version="0.1"  >
<UnstructuredGrid>
<Piece  NumberOfPoints="101" NumberOfCells="100">
<Points>
<DataArray  type="Float64"  NumberOfComponents="3"  format="ascii">0 0 0  3e-08 0 0  6.000000000000001e-08 0 0  9e-08 0 0  1.2e-07 0 0  1.5e-07 0 0  1.8e-07 0 0  2.1e-07 0 0  2.4e-07 0 0  2.7e-07 0 0  3e-07 0 0  3.3e-07 0 0  3.6e-07 0 0  3.9e-07 0 0  4.200000000000001e-07 0 0  4.5e-07 0 0  4.800000000000001e-07 0 0  5.1e-07 0 0  5.4e-07 0 0  5.7e-07 0 0  6e-07 0 0  6.3e-07 0 0  6.6e-07 0 0  6.9e-07 0 0  7.2e-07 0 0  7.5e-07 0 0  7.799999999999999e-07 0 0  8.100000000000001e-07 0 0  8.400000000000001e-07 0 0  8.7e-07 0 0  9.000000000000001e-07 0 0  9.3e-07 0 0  9.600000000000001e-07 0 0  9.900000000000001e-07 0 0  1.02e-06 0 0  1.05e-06 0 0  1.08e-06 0 0  1.11e-06 0 0  1.14e-06 0 0  1.17e-06 0 0  1.2e-06 0 0  1.23e-06 0 0  1.26e-06 0 0  1.29e-06 0 0  1.32e-06 0 0  1.35e-06 0 0  1.38e-06 0 0  1.41e-06 0 0  1.44e-06 0 0  1.47e-06 0 0  1.5e-06 0 0  1.53e-06 0 0  1.56e-06 0 0  1.59e-06 0 0  1.62e-06 0 0  1.65e-06 0 0  1.68e-06 0 0  1.71e-06 0 0  1.74e-06 0 0  1.77e-06 0 0  1.8e-06 0 0  1.83e-06 0 0  1.86e-06 0 0  1.89e-06 0 0  1.92e-06 0 0  1.95e-06 0 0  1.98e-06 0 0  2.01e-06 0 0  2.04e-06 0 0  2.07e-06 0 0  2.1e-06 0 0  2.13e-06 0 0  2.16e-06 0 0  2.19e-06 0 0  2.22e-06 0 0  2.25e-06 0 0  2.28e-06 0 0  2.31e-06 0 0  2.34e-06 0 0  2.37e-06 0 0  2.4e-06 0 0  2.43e-06 0 0  2.46e-06 0 0  2.49e-06 0 0  2.52e-06 0 0  2.55e-06 0 0  2.58e-06 0 0  2.61e-06 0 0  2.64e-06 0 0  2.67e-06 0 0  2.7e-06 0 0  2.73e-06 0 0  2.76e-06 0 0  2.79e-06 0 0  2.82e-06 0 0  2.85e-06 0 0  2.88e-06 0 0  2.91e-06 0 0  2.94e-06 0 0  2.97e-06 0 0  3e-06 0 0  </DataArray>
</Points>
<Cells>
<DataArray  type="UInt32"  Name="connectivity"  format="ascii">0 1  1 2  2 3  3 4  4 5  5 6  6 7  7 8  8 9  9 10  10 11  11 12  12 13  13 14  14 15  15 16  16 17  17 18  18 19  19 20  20 21  21 22  22 23  23 24  24 25  25 26  26 27  27 28  28 29  29 30  30 31  31 32  32 33  33 34  34 35  35 36  36 37  37 38  38 39  39 40  40 41  41 42  42 43  43 44  44 45  45 46  46 47  47 48  48 49  49 50  50 51  51 52  52 53  53 54  54 55  55 56  56 57  57 58  58 59  59 60  60 61  61 62  62 63  63 64  64 65  65 66  66 67  67 68  68 69  69 70  70 71  71 72  72 73  73 74  74 75  75 76  76 77  77 78  78 79  79 80  80 81  81 82  82 83  83 84  84 85  85 86  86 87  87 88  88 89  89 90  90 91  91 92  92 93  93 94  94 95  95 96  96 97  97 98  98 99  99 100  </DataArray>
<DataArray  type="UInt32"  Name="offsets"  format="ascii">2 4 6 8 10 12 14 16 18 20 22 24 26 28 30 32 34 36 38 40 42 44 46 48 50 52 54 56 58 60 62 64 66 68 70 72 74 76 78 80 82 84 86 88 90 92 94 96 98 100 102 104 106 108 110 112 114 116 118 120 122 124 126 128 130 132 134 136 138 140 142 144 146 148 150 152 154 156 158 160 162 164 166 168 170 172 174 176 178 180 182 184 186 188 190 192 194 196 198 200 </DataArray>
<DataArray  type="UInt8"  Name="types"  format="ascii">3 3 3 3 3 3 3 3 3 3 3 3 3 3 3 3 3 3 3 3 3 3 3 3 3 3 3 3 3 3 3 3 3 3 3 3 3 3 3 3 3 3 3 3 3 3 3 3 3 3 3 3 3 3 3 3 3 3 3 3 3 3 3 3 3 3 3 3 3 3 3 3 3 3 3 3 3 3 3 3 3 3 3 3 3 3 3 3 3 3 3 3 3 3 3 3 3 3 3 3 </DataArray>
</Cells>
<PointData  Scalars="f_16"> 
<DataArray  type="Float64"  Name="f_16"  format="ascii">0.0000000000000000e+00  2.2684202425890783e+20  4.5346018282684160e+20  6.7963083094123663e+20  9.0513076547831752e+20  1.1297374452276328e+21  1.3532292105133634e+21  1.5753855019456599e+21  1.7959870780861328e+21  2.0148162318126822e+21  2.2316570051701441e+21  2.4462954024947192e+21  2.6585196016018548e+21  2.8681201628291704e+21  3.0748902357281182e+21  3.2786257632003977e+21  3.4791256828776850e+21  3.6761921255459038e+21  3.8696306104182626e+21  4.0592502370643047e+21  4.2448638738055823e+21  4.4262883423920388e+21  4.6033445987768226e+21  4.7758579098111401e+21  4.9436580256847873e+21  5.1065793479421502e+21  5.2644610929078892e+21  5.4171474503610181e+21  5.5644877373007756e+21  5.7063365466525627e+21  5.8425538907671605e+21  5.9730053395716495e+21  6.0975621532356570e+21  6.2161014092220208e+21  6.3285061235965019e+21  6.4346653664767965e+21  6.5344743715069420e+21  6.6278346392490633e+21  6.7146540343904185e+21  6.7948468766698363e+21  6.8683340254337858e+21  6.9350429577386488e+21  6.9949078399221078e+21  7.0478695925730236e+21  7.0938759488356777e+21  7.1328815059908522e+21  7.1648477702628342e+21  7.1897431948081223e+21  7.2075432108483506e+21  7.2182302519167109e+21  7.2217937711939285e+21  7.2182302519167057e+21  7.2075432108483422e+21  7.1897431948081108e+21  7.1648477702628196e+21  7.1328815059908344e+21  7.0938759488356567e+21  7.0478695925730005e+21  6.9949078399220837e+21  6.9350429577386236e+21  6.8683340254337565e+21  6.7948468766698027e+21  6.7146540343903807e+21  6.6278346392490213e+21  6.5344743715068969e+21  6.4346653664767472e+21  6.3285061235964494e+21  6.2161014092219653e+21  6.0975621532355993e+21  5.9730053395715876e+21  5.8425538907670923e+21  5.7063365466524903e+21  5.5644877373006991e+21  5.4171474503609394e+21  5.2644610929078137e+21  5.1065793479420747e+21  4.9436580256847139e+21  4.7758579098110698e+21  4.6033445987767524e+21  4.4262883423919706e+21  4.2448638738055178e+21  4.0592502370642423e+21  3.8696306104182049e+21  3.6761921255458514e+21  3.4791256828776347e+21  3.2786257632003526e+21  3.0748902357280788e+21  2.8681201628291358e+21  2.6585196016018234e+21  2.4462954024946935e+21  2.2316570051701212e+21  2.0148162318126620e+21  1.7959870780861178e+21  1.5753855019456468e+21  1.3532292105133519e+21  1.1297374452276260e+21  9.0513076547831136e+20  6.7963083094123151e+20  4.5346018282684029e+20  2.2684202425890721e+20  0.0000000000000000e+00  </DataArray> 
</PointData> 
</Piece>
</UnstructuredGrid>
</VTKFile>