<?xml version="1.0"?>
<VTKFile type="UnstructuredGrid"  version="0.1"  >
<UnstructuredGrid>
<Piece  NumberOfPoints="101" NumberOfCells="100">
<Points>
<DataArray  type="Float64"  NumberOfComponents="3"  format="ascii">0 0 0  3e-08 0 0  6.000000000000001e-08 0 0  9e-08 0 0  1.2e-07 0 0  1.5e-07 0 0  1.8e-07 0 0  2.1e-07 0 0  2.4e-07 0 0  2.7e-07 0 0  3e-07 0 0  3.3e-07 0 0  3.6e-07 0 0  3.9e-07 0 0  4.200000000000001e-07 0 0  4.5e-07 0 0  4.800000000000001e-07 0 0  5.1e-07 0 0  5.4e-07 0 0  5.7e-07 0 0  6e-07 0 0  6.3e-07 0 0  6.6e-07 0 0  6.9e-07 0 0  7.2e-07 0 0  7.5e-07 0 0  7.799999999999999e-07 0 0  8.100000000000001e-07 0 0  8.400000000000001e-07 0 0  8.7e-07 0 0  9.000000000000001e-07 0 0  9.3e-07 0 0  9.600000000000001e-07 0 0  9.900000000000001e-07 0 0  1.02e-06 0 0  1.05e-06 0 0  1.08e-06 0 0  1.11e-06 0 0  1.14e-06 0 0  1.17e-06 0 0  1.2e-06 0 0  1.23e-06 0 0  1.26e-06 0 0  1.29e-06 0 0  1.32e-06 0 0  1.35e-06 0 0  1.38e-06 0 0  1.41e-06 0 0  1.44e-06 0 0  1.47e-06 0 0  1.5e-06 0 0  1.53e-06 0 0  1.56e-06 0 0  1.59e-06 0 0  1.62e-06 0 0  1.65e-06 0 0  1.68e-06 0 0  1.71e-06 0 0  1.74e-06 0 0  1.77e-06 0 0  1.8e-06 0 0  1.83e-06 0 0  1.86e-06 0 0  1.89e-06 0 0  1.92e-06 0 0  1.95e-06 0 0  1.98e-06 0 0  2.01e-06 0 0  2.04e-06 0 0  2.07e-06 0 0  2.1e-06 0 0  2.13e-06 0 0  2.16e-06 0 0  2.19e-06 0 0  2.22e-06 0 0  2.25e-06 0 0  2.28e-06 0 0  2.31e-06 0 0  2.34e-06 0 0  2.37e-06 0 0  2.4e-06 0 0  2.43e-06 0 0  2.46e-06 0 0  2.49e-06 0 0  2.52e-06 0 0  2.55e-06 0 0  2.58e-06 0 0  2.61e-06 0 0  2.64e-06 0 0  2.67e-06 0 0  2.7e-06 0 0  2.73e-06 0 0  2.76e-06 0 0  2.79e-06 0 0  2.82e-06 0 0  2.85e-06 0 0  2.88e-06 0 0  2.91e-06 0 0  2.94e-06 0 0  2.97e-06 0 0  3e-06 0 0  </DataArray>
</Points>
<Cells>
<DataArray  type="UInt32"  Name="connectivity"  format="ascii">0 1  1 2  2 3  3 4  4 5  5 6  6 7  7 8  8 9  9 10  10 11  11 12  12 13  13 14  14 15  15 16  16 17  17 18  18 19  19 20  20 21  21 22  22 23  23 24  24 25  25 26  26 27  27 28  28 29  29 30  30 31  31 32  32 33  33 34  34 35  35 36  36 37  37 38  38 39  39 40  40 41  41 42  42 43  43 44  44 45  45 46  46 47  47 48  48 49  49 50  50 51  51 52  52 53  53 54  54 55  55 56  56 57  57 58  58 59  59 60  60 61  61 62  62 63  63 64  64 65  65 66  66 67  67 68  68 69  69 70  70 71  71 72  72 73  73 74  74 75  75 76  76 77  77 78  78 79  79 80  80 81  81 82  82 83  83 84  84 85  85 86  86 87  87 88  88 89  89 90  90 91  91 92  92 93  93 94  94 95  95 96  96 97  97 98  98 99  99 100  </DataArray>
<DataArray  type="UInt32"  Name="offsets"  format="ascii">2 4 6 8 10 12 14 16 18 20 22 24 26 28 30 32 34 36 38 40 42 44 46 48 50 52 54 56 58 60 62 64 66 68 70 72 74 76 78 80 82 84 86 88 90 92 94 96 98 100 102 104 106 108 110 112 114 116 118 120 122 124 126 128 130 132 134 136 138 140 142 144 146 148 150 152 154 156 158 160 162 164 166 168 170 172 174 176 178 180 182 184 186 188 190 192 194 196 198 200 </DataArray>
<DataArray  type="UInt8"  Name="types"  format="ascii">3 3 3 3 3 3 3 3 3 3 3 3 3 3 3 3 3 3 3 3 3 3 3 3 3 3 3 3 3 3 3 3 3 3 3 3 3 3 3 3 3 3 3 3 3 3 3 3 3 3 3 3 3 3 3 3 3 3 3 3 3 3 3 3 3 3 3 3 3 3 3 3 3 3 3 3 3 3 3 3 3 3 3 3 3 3 3 3 3 3 3 3 3 3 3 3 3 3 3 3 </DataArray>
</Cells>
<PointData  Scalars="f_16"> 
<DataArray  type="Float64"  Name="f_16"  format="ascii">0.0000000000000000e+00  1.6907175078373582e+22  3.3797648562054597e+22  5.0654735483146926e+22  6.7461784109655895e+22  8.4202192519239295e+22  1.0085942511999951e+23  1.1741702910079799e+23  1.3385865079368744e+23  1.5016805193119924e+23  1.6632912578139192e+23  1.8232591314376199e+23  1.9814261818933849e+23  2.1376362412852740e+23  2.2917350869054039e+23  2.4435705939853188e+23  2.5929928862488142e+23  2.7398544841138637e+23  2.8840104503948262e+23  3.0253185333597458e+23  3.1636393070013830e+23  3.2988363083845912e+23  3.4307761719366981e+23  3.5593287605517894e+23  3.6843672933840622e+23  3.8057684702097905e+23  3.9234125922418927e+23  4.0371836792856037e+23  4.1469695831282479e+23  4.2526620970607391e+23  4.3541570614329715e+23  4.4513544651498611e+23  4.5441585430194014e+23  4.6324778688686501e+23  4.7162254443481103e+23  4.7953187833494895e+23  4.8696799919662895e+23  4.9392358439311332e+23  5.0039178514680723e+23  5.0636623315025135e+23  5.1184104671756400e+23  5.1681083646144368e+23  5.2127071049125954e+23  5.2521627912816929e+23  5.2864365913360816e+23  5.3154947744789454e+23  5.3393087443609296e+23  5.3578550663866428e+23  5.3711154902482411e+23  5.3790769674690930e+23  5.3817316639443558e+23  5.3790769674690876e+23  5.3711154902482344e+23  5.3578550663866334e+23  5.3393087443609182e+23  5.3154947744789326e+23  5.2864365913360662e+23  5.2521627912816775e+23  5.2127071049125793e+23  5.1681083646144187e+23  5.1184104671756192e+23  5.0636623315024900e+23  5.0039178514680462e+23  4.9392358439311063e+23  4.8696799919662593e+23  4.7953187833494573e+23  4.7162254443480774e+23  4.6324778688686158e+23  4.5441585430193652e+23  4.4513544651498215e+23  4.3541570614329279e+23  4.2526620970606928e+23  4.1469695831281969e+23  4.0371836792855514e+23  3.9234125922418424e+23  3.8057684702097395e+23  3.6843672933840125e+23  3.5593287605517424e+23  3.4307761719366511e+23  3.2988363083845462e+23  3.1636393070013400e+23  3.0253185333597035e+23  2.8840104503947866e+23  2.7398544841138281e+23  2.5929928862487806e+23  2.4435705939852883e+23  2.2917350869053773e+23  2.1376362412852502e+23  1.9814261818933635e+23  1.8232591314376028e+23  1.6632912578139034e+23  1.5016805193119787e+23  1.3385865079368646e+23  1.1741702910079714e+23  1.0085942511999876e+23  8.4202192519238842e+22  6.7461784109655492e+22  5.0654735483146582e+22  3.3797648562054530e+22  1.6907175078373548e+22  0.0000000000000000e+00  </DataArray> 
</PointData> 
</Piece>
</UnstructuredGrid>
</VTKFile>