<?xml version="1.0"?>
<VTKFile type="UnstructuredGrid"  version="0.1"  >
<UnstructuredGrid>
<Piece  NumberOfPoints="101" NumberOfCells="100">
<Points>
<DataArray  type="Float64"  NumberOfComponents="3"  format="ascii">0 0 0  0.001 0 0  0.002 0 0  0.003 0 0  0.004 0 0  0.005 0 0  0.006000000000000001 0 0  0.007000000000000001 0 0  0.008 0 0  0.009000000000000001 0 0  0.01 0 0  0.011 0 0  0.012 0 0  0.013 0 0  0.014 0 0  0.015 0 0  0.016 0 0  0.017 0 0  0.018 0 0  0.019 0 0  0.02 0 0  0.021 0 0  0.022 0 0  0.023 0 0  0.024 0 0  0.025 0 0  0.026 0 0  0.027 0 0  0.028 0 0  0.029 0 0  0.03 0 0  0.031 0 0  0.032 0 0  0.033 0 0  0.034 0 0  0.035 0 0  0.036 0 0  0.03700000000000001 0 0  0.03800000000000001 0 0  0.03900000000000001 0 0  0.04 0 0  0.04100000000000001 0 0  0.042 0 0  0.043 0 0  0.044 0 0  0.045 0 0  0.04600000000000001 0 0  0.047 0 0  0.04800000000000001 0 0  0.049 0 0  0.05 0 0  0.051 0 0  0.052 0 0  0.05300000000000001 0 0  0.05400000000000001 0 0  0.055 0 0  0.05600000000000001 0 0  0.057 0 0  0.05800000000000001 0 0  0.059 0 0  0.06 0 0  0.06100000000000001 0 0  0.062 0 0  0.063 0 0  0.064 0 0  0.065 0 0  0.066 0 0  0.067 0 0  0.068 0 0  0.06900000000000001 0 0  0.07000000000000001 0 0  0.07100000000000001 0 0  0.07200000000000001 0 0  0.07300000000000001 0 0  0.07400000000000001 0 0  0.075 0 0  0.07600000000000001 0 0  0.077 0 0  0.07800000000000001 0 0  0.079 0 0  0.08 0 0  0.081 0 0  0.08200000000000002 0 0  0.083 0 0  0.08400000000000001 0 0  0.08500000000000001 0 0  0.08599999999999999 0 0  0.08700000000000001 0 0  0.08800000000000001 0 0  0.08900000000000001 0 0  0.09 0 0  0.091 0 0  0.09200000000000001 0 0  0.09300000000000001 0 0  0.094 0 0  0.095 0 0  0.09600000000000002 0 0  0.09700000000000002 0 0  0.098 0 0  0.099 0 0  0.1 0 0  </DataArray>
</Points>
<Cells>
<DataArray  type="UInt32"  Name="connectivity"  format="ascii">0 1  1 2  2 3  3 4  4 5  5 6  6 7  7 8  8 9  9 10  10 11  11 12  12 13  13 14  14 15  15 16  16 17  17 18  18 19  19 20  20 21  21 22  22 23  23 24  24 25  25 26  26 27  27 28  28 29  29 30  30 31  31 32  32 33  33 34  34 35  35 36  36 37  37 38  38 39  39 40  40 41  41 42  42 43  43 44  44 45  45 46  46 47  47 48  48 49  49 50  50 51  51 52  52 53  53 54  54 55  55 56  56 57  57 58  58 59  59 60  60 61  61 62  62 63  63 64  64 65  65 66  66 67  67 68  68 69  69 70  70 71  71 72  72 73  73 74  74 75  75 76  76 77  77 78  78 79  79 80  80 81  81 82  82 83  83 84  84 85  85 86  86 87  87 88  88 89  89 90  90 91  91 92  92 93  93 94  94 95  95 96  96 97  97 98  98 99  99 100  </DataArray>
<DataArray  type="UInt32"  Name="offsets"  format="ascii">2 4 6 8 10 12 14 16 18 20 22 24 26 28 30 32 34 36 38 40 42 44 46 48 50 52 54 56 58 60 62 64 66 68 70 72 74 76 78 80 82 84 86 88 90 92 94 96 98 100 102 104 106 108 110 112 114 116 118 120 122 124 126 128 130 132 134 136 138 140 142 144 146 148 150 152 154 156 158 160 162 164 166 168 170 172 174 176 178 180 182 184 186 188 190 192 194 196 198 200 </DataArray>
<DataArray  type="UInt8"  Name="types"  format="ascii">3 3 3 3 3 3 3 3 3 3 3 3 3 3 3 3 3 3 3 3 3 3 3 3 3 3 3 3 3 3 3 3 3 3 3 3 3 3 3 3 3 3 3 3 3 3 3 3 3 3 3 3 3 3 3 3 3 3 3 3 3 3 3 3 3 3 3 3 3 3 3 3 3 3 3 3 3 3 3 3 3 3 3 3 3 3 3 3 3 3 3 3 3 3 3 3 3 3 3 3 </DataArray>
</Cells>
<PointData  Scalars="f_14"> 
<DataArray  type="Float64"  Name="f_14"  format="ascii">4.4624919987786422e-04  4.5064804938949217e-04  4.6390818030203910e-04  4.8622086562274432e-04  5.1790664615863045e-04  5.5941795758488529e-04  6.1134280494826588e-04  6.7440948087799514e-04  7.4949232223605700e-04  8.3761849804745152e-04  9.3997581923745751e-04  1.0579215578999351e-03  1.1929922604657674e-03  1.3469145351769137e-03  1.5216167896491425e-03  1.7192418889826937e-03  1.9421606988208103e-03  2.1929864709365255e-03  2.4745900213340769e-03  2.7901156424798733e-03  3.1429976821385252e-03  3.5369777114047378e-03  3.9761221939285498e-03  4.4648405570812824e-03  5.0079035539696871e-03  5.6104617928596076e-03  6.2780642978178362e-03  7.0166769513382871e-03  7.8327006565195173e-03  8.7329890431549657e-03  9.7248655290507191e-03  1.0816139535179863e-02  1.2015121641112301e-02  1.3330637455733780e-02  1.4772039967805840e-02  1.6349220131649717e-02  1.8072615435396018e-02  1.9953216193068748e-02  2.2002569297506862e-02  2.4232779169007613e-02  2.6656505634835792e-02  2.9286958477604454e-02  3.2137888396203670e-02  3.5223574131627911e-02  3.8558805521893814e-02  4.2158862265396266e-02  4.6039488190629071e-02  5.0216860852272713e-02  5.4707556299270370e-02  5.9528508889656793e-02  6.4696966059537758e-02  7.0230437989623654e-02  7.6146642151965288e-02  8.2463442761806338e-02  8.9198785204506262e-02  9.6370625554985059e-02  1.0399685535673522e-01  1.1209522187871486e-01  1.2068324412092520e-01  1.2977812489265411e-01  1.3939665934070655e-01  1.4955514035782383e-01  1.6026926135332034e-01  1.7155401691807556e-01  1.8342360196375321e-01  1.9589130996081919e-01  2.0896943094090495e-01  2.2266914996567913e-01  2.3700044679599111e-01  2.5197199752103749e-01  2.6759107892710859e-01  2.8386347639857434e-01  3.0079339614971906e-01  3.1838338258443760e-01  3.3663424157135441e-01  3.5554497040439803e-01  3.7511269519312584e-01  3.9533261639309636e-01  4.1619796314444185e-01  4.3769995703659348e-01  4.5982778585924050e-01  4.8256858783433687e-01  5.0590744675189092e-01  5.2982739835389991e-01  5.5430944822686756e-01  5.7933260137458609e-01  6.0487390355020121e-01  6.3090849433086138e-01  6.5740967182052146e-01  6.8434896876776108e-01  7.1169623978680430e-01  7.3941975927246484e-01  7.6748632950450624e-01  7.9586139834505165e-01  8.2450918584521649e-01  8.5339281899512687e-01  8.8247447377587807e-01  9.1171552360370312e-01  9.4107669319645559e-01  9.7051821684121431e-01  1.0000000000000000e+00  </DataArray> 
</PointData> 
</Piece>
</UnstructuredGrid>
</VTKFile>