<?xml version="1.0"?>
<VTKFile type="UnstructuredGrid"  version="0.1"  >
<UnstructuredGrid>
<Piece  NumberOfPoints="101" NumberOfCells="100">
<Points>
<DataArray  type="Float64"  NumberOfComponents="3"  format="ascii">0 0 0  0.001 0 0  0.002 0 0  0.003 0 0  0.004 0 0  0.005 0 0  0.006000000000000001 0 0  0.007000000000000001 0 0  0.008 0 0  0.009000000000000001 0 0  0.01 0 0  0.011 0 0  0.012 0 0  0.013 0 0  0.014 0 0  0.015 0 0  0.016 0 0  0.017 0 0  0.018 0 0  0.019 0 0  0.02 0 0  0.021 0 0  0.022 0 0  0.023 0 0  0.024 0 0  0.025 0 0  0.026 0 0  0.027 0 0  0.028 0 0  0.029 0 0  0.03 0 0  0.031 0 0  0.032 0 0  0.033 0 0  0.034 0 0  0.035 0 0  0.036 0 0  0.03700000000000001 0 0  0.03800000000000001 0 0  0.03900000000000001 0 0  0.04 0 0  0.04100000000000001 0 0  0.042 0 0  0.043 0 0  0.044 0 0  0.045 0 0  0.04600000000000001 0 0  0.047 0 0  0.04800000000000001 0 0  0.049 0 0  0.05 0 0  0.051 0 0  0.052 0 0  0.05300000000000001 0 0  0.05400000000000001 0 0  0.055 0 0  0.05600000000000001 0 0  0.057 0 0  0.05800000000000001 0 0  0.059 0 0  0.06 0 0  0.06100000000000001 0 0  0.062 0 0  0.063 0 0  0.064 0 0  0.065 0 0  0.066 0 0  0.067 0 0  0.068 0 0  0.06900000000000001 0 0  0.07000000000000001 0 0  0.07100000000000001 0 0  0.07200000000000001 0 0  0.07300000000000001 0 0  0.07400000000000001 0 0  0.075 0 0  0.07600000000000001 0 0  0.077 0 0  0.07800000000000001 0 0  0.079 0 0  0.08 0 0  0.081 0 0  0.08200000000000002 0 0  0.083 0 0  0.08400000000000001 0 0  0.08500000000000001 0 0  0.08599999999999999 0 0  0.08700000000000001 0 0  0.08800000000000001 0 0  0.08900000000000001 0 0  0.09 0 0  0.091 0 0  0.09200000000000001 0 0  0.09300000000000001 0 0  0.094 0 0  0.095 0 0  0.09600000000000002 0 0  0.09700000000000002 0 0  0.098 0 0  0.099 0 0  0.1 0 0  </DataArray>
</Points>
<Cells>
<DataArray  type="UInt32"  Name="connectivity"  format="ascii">0 1  1 2  2 3  3 4  4 5  5 6  6 7  7 8  8 9  9 10  10 11  11 12  12 13  13 14  14 15  15 16  16 17  17 18  18 19  19 20  20 21  21 22  22 23  23 24  24 25  25 26  26 27  27 28  28 29  29 30  30 31  31 32  32 33  33 34  34 35  35 36  36 37  37 38  38 39  39 40  40 41  41 42  42 43  43 44  44 45  45 46  46 47  47 48  48 49  49 50  50 51  51 52  52 53  53 54  54 55  55 56  56 57  57 58  58 59  59 60  60 61  61 62  62 63  63 64  64 65  65 66  66 67  67 68  68 69  69 70  70 71  71 72  72 73  73 74  74 75  75 76  76 77  77 78  78 79  79 80  80 81  81 82  82 83  83 84  84 85  85 86  86 87  87 88  88 89  89 90  90 91  91 92  92 93  93 94  94 95  95 96  96 97  97 98  98 99  99 100  </DataArray>
<DataArray  type="UInt32"  Name="offsets"  format="ascii">2 4 6 8 10 12 14 16 18 20 22 24 26 28 30 32 34 36 38 40 42 44 46 48 50 52 54 56 58 60 62 64 66 68 70 72 74 76 78 80 82 84 86 88 90 92 94 96 98 100 102 104 106 108 110 112 114 116 118 120 122 124 126 128 130 132 134 136 138 140 142 144 146 148 150 152 154 156 158 160 162 164 166 168 170 172 174 176 178 180 182 184 186 188 190 192 194 196 198 200 </DataArray>
<DataArray  type="UInt8"  Name="types"  format="ascii">3 3 3 3 3 3 3 3 3 3 3 3 3 3 3 3 3 3 3 3 3 3 3 3 3 3 3 3 3 3 3 3 3 3 3 3 3 3 3 3 3 3 3 3 3 3 3 3 3 3 3 3 3 3 3 3 3 3 3 3 3 3 3 3 3 3 3 3 3 3 3 3 3 3 3 3 3 3 3 3 3 3 3 3 3 3 3 3 3 3 3 3 3 3 3 3 3 3 3 3 </DataArray>
</Cells>
<PointData  Scalars="f_14"> 
<DataArray  type="Float64"  Name="f_14"  format="ascii">8.7922747953284855e-19  1.1330620035785200e-18  2.0348884098171552e-18  4.0796729643162714e-18  8.3760812359882248e-18  1.7219318430545570e-17  3.5258550718649186e-17  7.1821641500488139e-17  1.4549748831748544e-16  2.9310380176668277e-16  5.8712392944519525e-16  1.1693959000762014e-15  2.3157884173122771e-15  4.5595710273806787e-15  8.9252254163971785e-15  1.7368679443541090e-14  3.3600759492058186e-14  6.4617233455964436e-14  1.2352273004288158e-13  2.3470748937040145e-13  4.4327257105445199e-13  8.3207204525101492e-13  1.5523137588278698e-12  2.8781203868272328e-12  5.3031228273445216e-12  9.7102441456633457e-12  1.7667977982291082e-11  3.1943635939345832e-11  5.7385910014762485e-11  1.0243121622393908e-10  1.8165539637371444e-10  3.2006344507152912e-10  5.6024581992549294e-10  9.7422449011559158e-10  1.6829086398927815e-09  2.8877956531758108e-09  4.9222116004740967e-09  8.3334654156606718e-09  1.4013490646322128e-08  2.3404874773507721e-08  3.8823061121706365e-08  6.3955963368803669e-08  1.0463204108854433e-07  1.6999084182958736e-07  2.7425121376475605e-07  4.3935855101275200e-07  6.9891225045283775e-07  1.1039390712761798e-06  1.7313009848329405e-06  2.6958239233542154e-06  4.1676259693124359e-06  6.3966318662357276e-06  9.7469088432643554e-06  1.4744270356716032e-05  2.2141590956780341e-05  3.3007472875950885e-05  4.8845308480836210e-05  7.1751381352149943e-05  1.0462240762626968e-04  1.5142477144119878e-04  2.1753954609338844e-04  3.1019905870788652e-04  4.3903203751984840e-04  6.1673500400768262e-04  8.5988720530118040e-04  1.1899246436949625e-03  1.6342852356878781e-03  2.2277314052514120e-03  3.0138481048303449e-03  4.0467030726447318e-03  5.3926419385266116e-03  7.1321736666456990e-03  9.3618821466493231e-03  1.2196278241564053e-02  1.5769484393183566e-02  2.0236622505022898e-02  2.5774757184377252e-02  3.2583232752281963e-02  4.0883236125352947e-02  5.0916421131503756e-02  6.2942445195690450e-02  7.7235298264906146e-02  9.4078347185538799e-02  1.1375807629930441e-01  1.3655657532133567e-01  1.6274290575545633e-01  1.9256356295076005e-01  2.2623233693085176e-01  2.6391995490893355e-01  3.0574395501831020e-01  3.5175928739316203e-01  4.0195015920647248e-01  4.5622362987755810e-01  5.1440541866713119e-01  5.7623830902910778e-01  6.4138342489300304e-01  7.0942451880943969e-01  7.7987525845207806e-01  8.5218933620726922e-01  9.2577306764168421e-01  1.0000000000000000e+00  </DataArray> 
</PointData> 
</Piece>
</UnstructuredGrid>
</VTKFile>