<?xml version="1.0"?>
<VTKFile type="UnstructuredGrid"  version="0.1"  >
<UnstructuredGrid>
<Piece  NumberOfPoints="101" NumberOfCells="100">
<Points>
<DataArray  type="Float64"  NumberOfComponents="3"  format="ascii">0 0 0  0.001 0 0  0.002 0 0  0.003 0 0  0.004 0 0  0.005 0 0  0.006000000000000001 0 0  0.007000000000000001 0 0  0.008 0 0  0.009000000000000001 0 0  0.01 0 0  0.011 0 0  0.012 0 0  0.013 0 0  0.014 0 0  0.015 0 0  0.016 0 0  0.017 0 0  0.018 0 0  0.019 0 0  0.02 0 0  0.021 0 0  0.022 0 0  0.023 0 0  0.024 0 0  0.025 0 0  0.026 0 0  0.027 0 0  0.028 0 0  0.029 0 0  0.03 0 0  0.031 0 0  0.032 0 0  0.033 0 0  0.034 0 0  0.035 0 0  0.036 0 0  0.03700000000000001 0 0  0.03800000000000001 0 0  0.03900000000000001 0 0  0.04 0 0  0.04100000000000001 0 0  0.042 0 0  0.043 0 0  0.044 0 0  0.045 0 0  0.04600000000000001 0 0  0.047 0 0  0.04800000000000001 0 0  0.049 0 0  0.05 0 0  0.051 0 0  0.052 0 0  0.05300000000000001 0 0  0.05400000000000001 0 0  0.055 0 0  0.05600000000000001 0 0  0.057 0 0  0.05800000000000001 0 0  0.059 0 0  0.06 0 0  0.06100000000000001 0 0  0.062 0 0  0.063 0 0  0.064 0 0  0.065 0 0  0.066 0 0  0.067 0 0  0.068 0 0  0.06900000000000001 0 0  0.07000000000000001 0 0  0.07100000000000001 0 0  0.07200000000000001 0 0  0.07300000000000001 0 0  0.07400000000000001 0 0  0.075 0 0  0.07600000000000001 0 0  0.077 0 0  0.07800000000000001 0 0  0.079 0 0  0.08 0 0  0.081 0 0  0.08200000000000002 0 0  0.083 0 0  0.08400000000000001 0 0  0.08500000000000001 0 0  0.08599999999999999 0 0  0.08700000000000001 0 0  0.08800000000000001 0 0  0.08900000000000001 0 0  0.09 0 0  0.091 0 0  0.09200000000000001 0 0  0.09300000000000001 0 0  0.094 0 0  0.095 0 0  0.09600000000000002 0 0  0.09700000000000002 0 0  0.098 0 0  0.099 0 0  0.1 0 0  </DataArray>
</Points>
<Cells>
<DataArray  type="UInt32"  Name="connectivity"  format="ascii">0 1  1 2  2 3  3 4  4 5  5 6  6 7  7 8  8 9  9 10  10 11  11 12  12 13  13 14  14 15  15 16  16 17  17 18  18 19  19 20  20 21  21 22  22 23  23 24  24 25  25 26  26 27  27 28  28 29  29 30  30 31  31 32  32 33  33 34  34 35  35 36  36 37  37 38  38 39  39 40  40 41  41 42  42 43  43 44  44 45  45 46  46 47  47 48  48 49  49 50  50 51  51 52  52 53  53 54  54 55  55 56  56 57  57 58  58 59  59 60  60 61  61 62  62 63  63 64  64 65  65 66  66 67  67 68  68 69  69 70  70 71  71 72  72 73  73 74  74 75  75 76  76 77  77 78  78 79  79 80  80 81  81 82  82 83  83 84  84 85  85 86  86 87  87 88  88 89  89 90  90 91  91 92  92 93  93 94  94 95  95 96  96 97  97 98  98 99  99 100  </DataArray>
<DataArray  type="UInt32"  Name="offsets"  format="ascii">2 4 6 8 10 12 14 16 18 20 22 24 26 28 30 32 34 36 38 40 42 44 46 48 50 52 54 56 58 60 62 64 66 68 70 72 74 76 78 80 82 84 86 88 90 92 94 96 98 100 102 104 106 108 110 112 114 116 118 120 122 124 126 128 130 132 134 136 138 140 142 144 146 148 150 152 154 156 158 160 162 164 166 168 170 172 174 176 178 180 182 184 186 188 190 192 194 196 198 200 </DataArray>
<DataArray  type="UInt8"  Name="types"  format="ascii">3 3 3 3 3 3 3 3 3 3 3 3 3 3 3 3 3 3 3 3 3 3 3 3 3 3 3 3 3 3 3 3 3 3 3 3 3 3 3 3 3 3 3 3 3 3 3 3 3 3 3 3 3 3 3 3 3 3 3 3 3 3 3 3 3 3 3 3 3 3 3 3 3 3 3 3 3 3 3 3 3 3 3 3 3 3 3 3 3 3 3 3 3 3 3 3 3 3 3 3 </DataArray>
</Cells>
<PointData  Scalars="f_14"> 
<DataArray  type="Float64"  Name="f_14"  format="ascii">1.2974438898746253e-03  1.3068580610241440e-03  1.3351949880638227e-03  1.3827383451249144e-03  1.4499623647318697e-03  1.5375339934728452e-03  1.6463158943050091e-03  1.7773702797287674e-03  1.9319635553745789e-03  2.1115717487218640e-03  2.3178866926883684e-03  2.5528229286705421e-03  2.8185252882659139e-03  3.1173771073567261e-03  3.4520090204756110e-03  3.8253082774099847e-03  4.2404285178399880e-03  4.7007999334597265e-03  5.2101397405251637e-03  5.7724628791335098e-03  6.3920928488053431e-03  7.0736725831566111e-03  7.8221752596655501e-03  8.6429149338194972e-03  9.5415568803360138e-03  1.0524127517766354e-02  1.1597023786688450e-02  1.2767021845968479e-02  1.4041284946308017e-02  1.5427370335594796e-02  1.6933235046540776e-02  1.8567240413825563e-02  2.0338155165570915e-02  2.2255156932560229e-02  2.4327832018287972e-02  2.6566173273781721e-02  2.8980575923280395e-02  3.1581831190368261e-02  3.4381117579140488e-02  3.7389989671486497e-02  4.0620364309687497e-02  4.4084504043285865e-02  4.7794997730632692e-02  5.1764738198682110e-02  5.6006896879474001e-02  6.0534895358325437e-02  6.5362373786995928e-02  7.0503156134947495e-02  7.5971212273220193e-02  8.1780616908273929e-02  8.7945505407307209e-02  9.4480026581887602e-02  1.0139829252307554e-01  1.0871432560838377e-01  1.1644200282869890e-01  1.2459499761146134e-01  1.3318671934471615e-01  1.4223025083484400e-01  1.5173828395859212e-01  1.6172305379714838e-01  1.7219627156616482e-01  1.8316905668051253e-01  1.9465186831586398e-01  2.0665443685062770e-01  2.1918569559101758e-01  2.3225371319884452e-01  2.4586562725567918e-01  2.6002757940811538e-01  2.7474465254670688e-01  2.9002081047555933e-01  3.0585884053033707e-01  3.2226029959944341e-01  3.3922546399623060e-01  3.5675328361921121e-01  3.7484134082232767e-01  3.9348581439839642e-01  4.1268144905591392e-01  4.3242153074257161e-01  4.5269786813823404e-01  4.7350078060590217e-01  4.9481909285161779e-01  5.1664013650352414e-01  5.3894975877677032e-01  5.6173233834491376e-01  5.8497080849033156e-01  6.0864668755629692e-01  6.3274011667225427e-01  6.5722990467186382e-01  6.8209358007108489e-01  7.0730744992141303e-01  7.3284666530182663e-01  7.5868529316260291e-01  7.8479639418535629e-01  8.1115210627695711e-01  8.3772373327084859e-01  8.6448183836814996e-01  8.9139634181322280e-01  9.1843662226449063e-01  9.4557162129156114e-01  9.7276995040442993e-01  1.0000000000000000e+00  </DataArray> 
</PointData> 
</Piece>
</UnstructuredGrid>
</VTKFile>