<?xml version="1.0"?>
<VTKFile type="UnstructuredGrid"  version="0.1"  >
<UnstructuredGrid>
<Piece  NumberOfPoints="101" NumberOfCells="100">
<Points>
<DataArray  type="Float64"  NumberOfComponents="3"  format="ascii">0 0 0  0.001 0 0  0.002 0 0  0.003 0 0  0.004 0 0  0.005 0 0  0.006000000000000001 0 0  0.007000000000000001 0 0  0.008 0 0  0.009000000000000001 0 0  0.01 0 0  0.011 0 0  0.012 0 0  0.013 0 0  0.014 0 0  0.015 0 0  0.016 0 0  0.017 0 0  0.018 0 0  0.019 0 0  0.02 0 0  0.021 0 0  0.022 0 0  0.023 0 0  0.024 0 0  0.025 0 0  0.026 0 0  0.027 0 0  0.028 0 0  0.029 0 0  0.03 0 0  0.031 0 0  0.032 0 0  0.033 0 0  0.034 0 0  0.035 0 0  0.036 0 0  0.03700000000000001 0 0  0.03800000000000001 0 0  0.03900000000000001 0 0  0.04 0 0  0.04100000000000001 0 0  0.042 0 0  0.043 0 0  0.044 0 0  0.045 0 0  0.04600000000000001 0 0  0.047 0 0  0.04800000000000001 0 0  0.049 0 0  0.05 0 0  0.051 0 0  0.052 0 0  0.05300000000000001 0 0  0.05400000000000001 0 0  0.055 0 0  0.05600000000000001 0 0  0.057 0 0  0.05800000000000001 0 0  0.059 0 0  0.06 0 0  0.06100000000000001 0 0  0.062 0 0  0.063 0 0  0.064 0 0  0.065 0 0  0.066 0 0  0.067 0 0  0.068 0 0  0.06900000000000001 0 0  0.07000000000000001 0 0  0.07100000000000001 0 0  0.07200000000000001 0 0  0.07300000000000001 0 0  0.07400000000000001 0 0  0.075 0 0  0.07600000000000001 0 0  0.077 0 0  0.07800000000000001 0 0  0.079 0 0  0.08 0 0  0.081 0 0  0.08200000000000002 0 0  0.083 0 0  0.08400000000000001 0 0  0.08500000000000001 0 0  0.08599999999999999 0 0  0.08700000000000001 0 0  0.08800000000000001 0 0  0.08900000000000001 0 0  0.09 0 0  0.091 0 0  0.09200000000000001 0 0  0.09300000000000001 0 0  0.094 0 0  0.095 0 0  0.09600000000000002 0 0  0.09700000000000002 0 0  0.098 0 0  0.099 0 0  0.1 0 0  </DataArray>
</Points>
<Cells>
<DataArray  type="UInt32"  Name="connectivity"  format="ascii">0 1  1 2  2 3  3 4  4 5  5 6  6 7  7 8  8 9  9 10  10 11  11 12  12 13  13 14  14 15  15 16  16 17  17 18  18 19  19 20  20 21  21 22  22 23  23 24  24 25  25 26  26 27  27 28  28 29  29 30  30 31  31 32  32 33  33 34  34 35  35 36  36 37  37 38  38 39  39 40  40 41  41 42  42 43  43 44  44 45  45 46  46 47  47 48  48 49  49 50  50 51  51 52  52 53  53 54  54 55  55 56  56 57  57 58  58 59  59 60  60 61  61 62  62 63  63 64  64 65  65 66  66 67  67 68  68 69  69 70  70 71  71 72  72 73  73 74  74 75  75 76  76 77  77 78  78 79  79 80  80 81  81 82  82 83  83 84  84 85  85 86  86 87  87 88  88 89  89 90  90 91  91 92  92 93  93 94  94 95  95 96  96 97  97 98  98 99  99 100  </DataArray>
<DataArray  type="UInt32"  Name="offsets"  format="ascii">2 4 6 8 10 12 14 16 18 20 22 24 26 28 30 32 34 36 38 40 42 44 46 48 50 52 54 56 58 60 62 64 66 68 70 72 74 76 78 80 82 84 86 88 90 92 94 96 98 100 102 104 106 108 110 112 114 116 118 120 122 124 126 128 130 132 134 136 138 140 142 144 146 148 150 152 154 156 158 160 162 164 166 168 170 172 174 176 178 180 182 184 186 188 190 192 194 196 198 200 </DataArray>
<DataArray  type="UInt8"  Name="types"  format="ascii">3 3 3 3 3 3 3 3 3 3 3 3 3 3 3 3 3 3 3 3 3 3 3 3 3 3 3 3 3 3 3 3 3 3 3 3 3 3 3 3 3 3 3 3 3 3 3 3 3 3 3 3 3 3 3 3 3 3 3 3 3 3 3 3 3 3 3 3 3 3 3 3 3 3 3 3 3 3 3 3 3 3 3 3 3 3 3 3 3 3 3 3 3 3 3 3 3 3 3 3 </DataArray>
</Cells>
<PointData  Scalars="f_14"> 
<DataArray  type="Float64"  Name="f_14"  format="ascii">2.5774079198372064e-04  2.6066809616854148e-04  2.6949993025552390e-04  2.8438658208885717e-04  3.0558027625570062e-04  3.3343779372895193e-04  3.6842414394150233e-04  4.1111729346895813e-04  4.6221395612534025e-04  5.2253644948270397e-04  5.9304062252122508e-04  6.7482485821388990e-04  7.6914015326558238e-04  8.7740127488012678e-04  1.0011989912456769e-03  1.1423133683395299e-03  1.3027281205957519e-03  1.4846459968988264e-03  1.6905051762192459e-03  1.9229966389586711e-03  2.1850824707014848e-03  2.4800150445684239e-03  2.8113570167439582e-03  3.1830020570265813e-03  3.5991962224726937e-03  4.0645598674326454e-03  4.5841099675951059e-03  5.1632827191685797e-03  5.8079562571652695e-03  6.5244733190648035e-03  7.3196636621000004e-03  8.2008660242247518e-03  9.1759494007194863e-03  1.0253333390610679e-02  1.1442007349896439e-02  1.2751548072270946e-02  1.4192135702933270e-02  1.5774567577474346e-02  1.7510269666094005e-02  1.9411305293850396e-02  2.1490380800633452e-02  2.3760847800426393e-02  2.6236701698512263e-02  2.8932576127923614e-02  3.1863732972924476e-02  3.5046047657941809e-02  3.8495989395374318e-02  4.2230596105309930e-02  4.6267443744551835e-02  5.0624609811590011e-02  5.5320630828331011e-02  6.0374453638491393e-02  6.5805380406509226e-02  7.1633007249471595e-02  7.7877156487679025e-02  8.4557802556760306e-02  9.1694991685331018e-02  9.9308755506589519e-02  1.0741901883942535e-01  1.1604550194394282e-01  1.2520761762710461e-01  1.3492436364568605e-01  1.4521421092510761e-01  1.5609498818308706e-01  1.6758376361551253e-01  1.7969672436755155e-01  1.9244905457479128e-01  2.0585481281620716e-01  2.1992680987200683e-01  2.3467648772396796e-01  2.5011380077288953e-01  2.6624710027636561e-01  2.8308302302951038e-01  3.0062638532082753e-01  3.1888008319455635e-01  3.3784500003907553e-01  3.5751992249796455e-01  3.7790146566591876e-01  3.9898400848584636e-01  4.2075964020619888e-01  4.4321811868924510e-01  4.6634684128189707e-01  4.9013082887152981e-01  5.1455272365063431e-01  5.3959280100706764e-01  5.6522899584207320e-01  5.9143694349735643e-01  6.1819003534653305e-01  6.4545948897661409e-01  6.7321443275333936e-01  7.0142200443156322e-01  7.3004746334018467e-01  7.5905431554181124e-01  7.8840445124207192e-01  8.1805829360378357e-01  8.4797495800852929e-01  8.7811242070406792e-01  9.0842769568169224e-01  9.3887701854439432e-01  9.6941603605557747e-01  1.0000000000000000e+00  </DataArray> 
</PointData> 
</Piece>
</UnstructuredGrid>
</VTKFile>