<?xml version="1.0"?>
<VTKFile type="UnstructuredGrid"  version="0.1"  >
<UnstructuredGrid>
<Piece  NumberOfPoints="101" NumberOfCells="100">
<Points>
<DataArray  type="Float64"  NumberOfComponents="3"  format="ascii">0 0 0  0.001 0 0  0.002 0 0  0.003 0 0  0.004 0 0  0.005 0 0  0.006000000000000001 0 0  0.007000000000000001 0 0  0.008 0 0  0.009000000000000001 0 0  0.01 0 0  0.011 0 0  0.012 0 0  0.013 0 0  0.014 0 0  0.015 0 0  0.016 0 0  0.017 0 0  0.018 0 0  0.019 0 0  0.02 0 0  0.021 0 0  0.022 0 0  0.023 0 0  0.024 0 0  0.025 0 0  0.026 0 0  0.027 0 0  0.028 0 0  0.029 0 0  0.03 0 0  0.031 0 0  0.032 0 0  0.033 0 0  0.034 0 0  0.035 0 0  0.036 0 0  0.03700000000000001 0 0  0.03800000000000001 0 0  0.03900000000000001 0 0  0.04 0 0  0.04100000000000001 0 0  0.042 0 0  0.043 0 0  0.044 0 0  0.045 0 0  0.04600000000000001 0 0  0.047 0 0  0.04800000000000001 0 0  0.049 0 0  0.05 0 0  0.051 0 0  0.052 0 0  0.05300000000000001 0 0  0.05400000000000001 0 0  0.055 0 0  0.05600000000000001 0 0  0.057 0 0  0.05800000000000001 0 0  0.059 0 0  0.06 0 0  0.06100000000000001 0 0  0.062 0 0  0.063 0 0  0.064 0 0  0.065 0 0  0.066 0 0  0.067 0 0  0.068 0 0  0.06900000000000001 0 0  0.07000000000000001 0 0  0.07100000000000001 0 0  0.07200000000000001 0 0  0.07300000000000001 0 0  0.07400000000000001 0 0  0.075 0 0  0.07600000000000001 0 0  0.077 0 0  0.07800000000000001 0 0  0.079 0 0  0.08 0 0  0.081 0 0  0.08200000000000002 0 0  0.083 0 0  0.08400000000000001 0 0  0.08500000000000001 0 0  0.08599999999999999 0 0  0.08700000000000001 0 0  0.08800000000000001 0 0  0.08900000000000001 0 0  0.09 0 0  0.091 0 0  0.09200000000000001 0 0  0.09300000000000001 0 0  0.094 0 0  0.095 0 0  0.09600000000000002 0 0  0.09700000000000002 0 0  0.098 0 0  0.099 0 0  0.1 0 0  </DataArray>
</Points>
<Cells>
<DataArray  type="UInt32"  Name="connectivity"  format="ascii">0 1  1 2  2 3  3 4  4 5  5 6  6 7  7 8  8 9  9 10  10 11  11 12  12 13  13 14  14 15  15 16  16 17  17 18  18 19  19 20  20 21  21 22  22 23  23 24  24 25  25 26  26 27  27 28  28 29  29 30  30 31  31 32  32 33  33 34  34 35  35 36  36 37  37 38  38 39  39 40  40 41  41 42  42 43  43 44  44 45  45 46  46 47  47 48  48 49  49 50  50 51  51 52  52 53  53 54  54 55  55 56  56 57  57 58  58 59  59 60  60 61  61 62  62 63  63 64  64 65  65 66  66 67  67 68  68 69  69 70  70 71  71 72  72 73  73 74  74 75  75 76  76 77  77 78  78 79  79 80  80 81  81 82  82 83  83 84  84 85  85 86  86 87  87 88  88 89  89 90  90 91  91 92  92 93  93 94  94 95  95 96  96 97  97 98  98 99  99 100  </DataArray>
<DataArray  type="UInt32"  Name="offsets"  format="ascii">2 4 6 8 10 12 14 16 18 20 22 24 26 28 30 32 34 36 38 40 42 44 46 48 50 52 54 56 58 60 62 64 66 68 70 72 74 76 78 80 82 84 86 88 90 92 94 96 98 100 102 104 106 108 110 112 114 116 118 120 122 124 126 128 130 132 134 136 138 140 142 144 146 148 150 152 154 156 158 160 162 164 166 168 170 172 174 176 178 180 182 184 186 188 190 192 194 196 198 200 </DataArray>
<DataArray  type="UInt8"  Name="types"  format="ascii">3 3 3 3 3 3 3 3 3 3 3 3 3 3 3 3 3 3 3 3 3 3 3 3 3 3 3 3 3 3 3 3 3 3 3 3 3 3 3 3 3 3 3 3 3 3 3 3 3 3 3 3 3 3 3 3 3 3 3 3 3 3 3 3 3 3 3 3 3 3 3 3 3 3 3 3 3 3 3 3 3 3 3 3 3 3 3 3 3 3 3 3 3 3 3 3 3 3 3 3 </DataArray>
</Cells>
<PointData  Scalars="f_14"> 
<DataArray  type="Float64"  Name="f_14"  format="ascii">3.9868078442544847e-12  4.4637666170189468e-12  6.0002904572939994e-12  8.9347557613397889e-12  1.3906495410536699e-11  2.1983234658659498e-11  3.4870634894312299e-11  5.5240962182326163e-11  8.7237774508671055e-11  1.3724204874910342e-10  2.1502635039113970e-10  3.3548307081779763e-10  5.2119820374545982e-10  8.0626441582913916e-10  1.2419012190827275e-09  1.9046963682552892e-09  2.9086291182065520e-09  4.4225204862971041e-09  6.6952289489951219e-09  1.0091839741556054e-08  1.5145371626534340e-08  2.2630264042646259e-08  3.3666262612605848e-08  4.9864488894720187e-08  7.3531712422599601e-08  1.0795445758626990e-07  1.5779197320329865e-07  2.2961676250920473e-07  3.3265392087961141e-07  4.7978669050252966e-07  6.8891629091958121e-07  9.8479025318237211e-07  1.4014463691667020e-06  1.9854603283851255e-06  2.8002356721265447e-06  3.9316365036355633e-06  5.4953382017923135e-06  7.6463609717257795e-06  1.0591357141457259e-05  1.4604347198623228e-05  2.0046742815333021e-05  2.7392658122525445e-05  3.7260693034211357e-05  5.0453573131126481e-05  6.8007246677319658e-05  9.1251266119316116e-05  1.2188251205212074e-04  1.6205454268776546e-04  2.1448505895812095e-04  2.8258414894972349e-04  3.7060609647026119e-04  4.8382758489566937e-04  6.2875507362327050e-04  8.1336394239973540e-04  1.0473716586162163e-03  1.3425466938301633e-03  1.7130541686655196e-03  2.1758382131257682e-03  2.7510397707213416e-03  3.4624470360503676e-03  4.3379738937541681e-03  5.4101596330388005e-03  6.7166808738193589e-03  8.3008641048555199e-03  1.0212184569115084e-02  1.2506734527573893e-02  1.5247641302764754e-02  1.8505413081814741e-02  2.2358188397866598e-02  2.6891863674599961e-02  3.2200072384000973e-02  3.8383989404276300e-02  4.5551935233511129e-02  5.3818756953907698e-02  6.3304966356035941e-02  7.4135620481842593e-02  8.6438936032131486e-02  1.0034463654598255e-01  1.1598203986061785e-01  1.3347790288878292e-01  1.5295405091945227e-01  1.7452482909860240e-01  1.9829442406168682e-01  2.2435411340454847e-01  2.5277950930547849e-01  2.8362786965630149e-01  3.1693555505729548e-01  3.5271571256364193e-01  3.9095626680351730e-01  4.3161829578809785e-01  4.7463486229592772e-01  5.1991036217493725e-01  5.6732043845224989e-01  6.1671249511401838e-01  6.6790682729747941e-01  7.2069836603441506e-01  7.7485901630965959e-01  8.3014054782933877e-01  8.8627797934111807e-01  9.4299338041247271e-01  1.0000000000000000e+00  </DataArray> 
</PointData> 
</Piece>
</UnstructuredGrid>
</VTKFile>