<?xml version="1.0"?>
<VTKFile type="UnstructuredGrid"  version="0.1"  >
<UnstructuredGrid>
<Piece  NumberOfPoints="101" NumberOfCells="100">
<Points>
<DataArray  type="Float64"  NumberOfComponents="3"  format="ascii">0 0 0  0.001 0 0  0.002 0 0  0.003 0 0  0.004 0 0  0.005 0 0  0.006000000000000001 0 0  0.007000000000000001 0 0  0.008 0 0  0.009000000000000001 0 0  0.01 0 0  0.011 0 0  0.012 0 0  0.013 0 0  0.014 0 0  0.015 0 0  0.016 0 0  0.017 0 0  0.018 0 0  0.019 0 0  0.02 0 0  0.021 0 0  0.022 0 0  0.023 0 0  0.024 0 0  0.025 0 0  0.026 0 0  0.027 0 0  0.028 0 0  0.029 0 0  0.03 0 0  0.031 0 0  0.032 0 0  0.033 0 0  0.034 0 0  0.035 0 0  0.036 0 0  0.03700000000000001 0 0  0.03800000000000001 0 0  0.03900000000000001 0 0  0.04 0 0  0.04100000000000001 0 0  0.042 0 0  0.043 0 0  0.044 0 0  0.045 0 0  0.04600000000000001 0 0  0.047 0 0  0.04800000000000001 0 0  0.049 0 0  0.05 0 0  0.051 0 0  0.052 0 0  0.05300000000000001 0 0  0.05400000000000001 0 0  0.055 0 0  0.05600000000000001 0 0  0.057 0 0  0.05800000000000001 0 0  0.059 0 0  0.06 0 0  0.06100000000000001 0 0  0.062 0 0  0.063 0 0  0.064 0 0  0.065 0 0  0.066 0 0  0.067 0 0  0.068 0 0  0.06900000000000001 0 0  0.07000000000000001 0 0  0.07100000000000001 0 0  0.07200000000000001 0 0  0.07300000000000001 0 0  0.07400000000000001 0 0  0.075 0 0  0.07600000000000001 0 0  0.077 0 0  0.07800000000000001 0 0  0.079 0 0  0.08 0 0  0.081 0 0  0.08200000000000002 0 0  0.083 0 0  0.08400000000000001 0 0  0.08500000000000001 0 0  0.08599999999999999 0 0  0.08700000000000001 0 0  0.08800000000000001 0 0  0.08900000000000001 0 0  0.09 0 0  0.091 0 0  0.09200000000000001 0 0  0.09300000000000001 0 0  0.094 0 0  0.095 0 0  0.09600000000000002 0 0  0.09700000000000002 0 0  0.098 0 0  0.099 0 0  0.1 0 0  </DataArray>
</Points>
<Cells>
<DataArray  type="UInt32"  Name="connectivity"  format="ascii">0 1  1 2  2 3  3 4  4 5  5 6  6 7  7 8  8 9  9 10  10 11  11 12  12 13  13 14  14 15  15 16  16 17  17 18  18 19  19 20  20 21  21 22  22 23  23 24  24 25  25 26  26 27  27 28  28 29  29 30  30 31  31 32  32 33  33 34  34 35  35 36  36 37  37 38  38 39  39 40  40 41  41 42  42 43  43 44  44 45  45 46  46 47  47 48  48 49  49 50  50 51  51 52  52 53  53 54  54 55  55 56  56 57  57 58  58 59  59 60  60 61  61 62  62 63  63 64  64 65  65 66  66 67  67 68  68 69  69 70  70 71  71 72  72 73  73 74  74 75  75 76  76 77  77 78  78 79  79 80  80 81  81 82  82 83  83 84  84 85  85 86  86 87  87 88  88 89  89 90  90 91  91 92  92 93  93 94  94 95  95 96  96 97  97 98  98 99  99 100  </DataArray>
<DataArray  type="UInt32"  Name="offsets"  format="ascii">2 4 6 8 10 12 14 16 18 20 22 24 26 28 30 32 34 36 38 40 42 44 46 48 50 52 54 56 58 60 62 64 66 68 70 72 74 76 78 80 82 84 86 88 90 92 94 96 98 100 102 104 106 108 110 112 114 116 118 120 122 124 126 128 130 132 134 136 138 140 142 144 146 148 150 152 154 156 158 160 162 164 166 168 170 172 174 176 178 180 182 184 186 188 190 192 194 196 198 200 </DataArray>
<DataArray  type="UInt8"  Name="types"  format="ascii">3 3 3 3 3 3 3 3 3 3 3 3 3 3 3 3 3 3 3 3 3 3 3 3 3 3 3 3 3 3 3 3 3 3 3 3 3 3 3 3 3 3 3 3 3 3 3 3 3 3 3 3 3 3 3 3 3 3 3 3 3 3 3 3 3 3 3 3 3 3 3 3 3 3 3 3 3 3 3 3 3 3 3 3 3 3 3 3 3 3 3 3 3 3 3 3 3 3 3 3 </DataArray>
</Cells>
<PointData  Scalars="f_14"> 
<DataArray  type="Float64"  Name="f_14"  format="ascii">3.6124545777827821e-06  3.7092099929840954e-06  4.0038111770473228e-06  4.5094154181720860e-06  5.2484634292199406e-06  6.2534600266908976e-06  7.5680928578986480e-06  9.2487152202475748e-06  1.1366226829291735e-05  1.4008394465767168e-05  1.7282662803606936e-05  2.1319514415951273e-05  2.6276446983841091e-05  3.2342645083883435e-05  3.9744433576737824e-05  4.8751609503526678e-05  5.9684759440507951e-05  7.2923679351252627e-05  8.8917023964189576e-05  1.0819332240922619e-04  1.3137350604866771e-04  1.5918510287209049e-04  1.9247826018675368e-04  2.3224376327578893e-04  2.7963322182392863e-04  3.3598159779149931e-04  4.0283224757966287e-04  4.8196464726702902e-04  5.7542496187536912e-04  6.8555960748595518e-04  8.1505193801419487e-04  9.6696216599775691e-04  1.1447705983187854e-03  1.3524242328551140e-03  1.5943867201827567e-03  1.8756916452510560e-03  2.2019990271379100e-03  2.5796548704014564e-03  3.0157535291574908e-03  3.5182025649797390e-03  4.0957896923880599e-03  4.7582513116200733e-03  5.5163420283743554e-03  6.3819044553243762e-03  7.3679384817545547e-03  8.4886690872656590e-03  9.7596116650145292e-03  1.1197633711545389e-02  1.2821011636350884e-02  1.4649481347516528e-02  1.6704281183011507e-02  1.9008185683404406e-02  2.1585528644138669e-02  2.4462213847173543e-02  2.7665711855942184e-02  3.1225041267253624e-02  3.5170732851839297e-02  3.9534775084304689e-02  4.4350539665509323e-02  4.9652685777598370e-02  5.5477041985231561e-02  6.1860464906502217e-02  6.8840674023400467e-02  7.6456062283404791e-02  8.4745482458974536e-02  9.3748009577556260e-02  1.0350268010743872e-01  1.1404820897972931e-01  1.2542268593828179e-01  1.3766325313115363e-01  1.5080576628189679e-01  1.6488444219882870e-01  1.7993149578698145e-01  1.9597677011192907e-01  2.1304736341817401e-01  2.3116725731829219e-01  2.5035695063386193e-01  2.7063310357703507e-01  2.9200819710488440e-01  3.1449021235057717e-01  3.3808233503049262e-01  3.6278268964019178e-01  3.8858410808197097e-01  4.1547393711131331e-01  4.4343388864952732e-01  4.7243993658756456e-01  5.0246226320573018e-01  5.3346525776176701e-01  5.6540756916346069e-01  5.9824221395102573e-01  6.3191674007998100e-01  6.6637344622942896e-01  7.0154965557683702e-01  7.3737804219278014e-01  7.7378700743213602e-01  8.1070110294668807e-01  8.4804149623245084e-01  8.8572647396727089e-01  9.2367197780341459e-01  9.6179216676783674e-01  1.0000000000000000e+00  </DataArray> 
</PointData> 
</Piece>
</UnstructuredGrid>
</VTKFile>