<?xml version="1.0"?>
<VTKFile type="UnstructuredGrid"  version="0.1"  >
<UnstructuredGrid>
<Piece  NumberOfPoints="101" NumberOfCells="100">
<Points>
<DataArray  type="Float64"  NumberOfComponents="3"  format="ascii">0 0 0  0.001 0 0  0.002 0 0  0.003 0 0  0.004 0 0  0.005 0 0  0.006000000000000001 0 0  0.007000000000000001 0 0  0.008 0 0  0.009000000000000001 0 0  0.01 0 0  0.011 0 0  0.012 0 0  0.013 0 0  0.014 0 0  0.015 0 0  0.016 0 0  0.017 0 0  0.018 0 0  0.019 0 0  0.02 0 0  0.021 0 0  0.022 0 0  0.023 0 0  0.024 0 0  0.025 0 0  0.026 0 0  0.027 0 0  0.028 0 0  0.029 0 0  0.03 0 0  0.031 0 0  0.032 0 0  0.033 0 0  0.034 0 0  0.035 0 0  0.036 0 0  0.03700000000000001 0 0  0.03800000000000001 0 0  0.03900000000000001 0 0  0.04 0 0  0.04100000000000001 0 0  0.042 0 0  0.043 0 0  0.044 0 0  0.045 0 0  0.04600000000000001 0 0  0.047 0 0  0.04800000000000001 0 0  0.049 0 0  0.05 0 0  0.051 0 0  0.052 0 0  0.05300000000000001 0 0  0.05400000000000001 0 0  0.055 0 0  0.05600000000000001 0 0  0.057 0 0  0.05800000000000001 0 0  0.059 0 0  0.06 0 0  0.06100000000000001 0 0  0.062 0 0  0.063 0 0  0.064 0 0  0.065 0 0  0.066 0 0  0.067 0 0  0.068 0 0  0.06900000000000001 0 0  0.07000000000000001 0 0  0.07100000000000001 0 0  0.07200000000000001 0 0  0.07300000000000001 0 0  0.07400000000000001 0 0  0.075 0 0  0.07600000000000001 0 0  0.077 0 0  0.07800000000000001 0 0  0.079 0 0  0.08 0 0  0.081 0 0  0.08200000000000002 0 0  0.083 0 0  0.08400000000000001 0 0  0.08500000000000001 0 0  0.08599999999999999 0 0  0.08700000000000001 0 0  0.08800000000000001 0 0  0.08900000000000001 0 0  0.09 0 0  0.091 0 0  0.09200000000000001 0 0  0.09300000000000001 0 0  0.094 0 0  0.095 0 0  0.09600000000000002 0 0  0.09700000000000002 0 0  0.098 0 0  0.099 0 0  0.1 0 0  </DataArray>
</Points>
<Cells>
<DataArray  type="UInt32"  Name="connectivity"  format="ascii">0 1  1 2  2 3  3 4  4 5  5 6  6 7  7 8  8 9  9 10  10 11  11 12  12 13  13 14  14 15  15 16  16 17  17 18  18 19  19 20  20 21  21 22  22 23  23 24  24 25  25 26  26 27  27 28  28 29  29 30  30 31  31 32  32 33  33 34  34 35  35 36  36 37  37 38  38 39  39 40  40 41  41 42  42 43  43 44  44 45  45 46  46 47  47 48  48 49  49 50  50 51  51 52  52 53  53 54  54 55  55 56  56 57  57 58  58 59  59 60  60 61  61 62  62 63  63 64  64 65  65 66  66 67  67 68  68 69  69 70  70 71  71 72  72 73  73 74  74 75  75 76  76 77  77 78  78 79  79 80  80 81  81 82  82 83  83 84  84 85  85 86  86 87  87 88  88 89  89 90  90 91  91 92  92 93  93 94  94 95  95 96  96 97  97 98  98 99  99 100  </DataArray>
<DataArray  type="UInt32"  Name="offsets"  format="ascii">2 4 6 8 10 12 14 16 18 20 22 24 26 28 30 32 34 36 38 40 42 44 46 48 50 52 54 56 58 60 62 64 66 68 70 72 74 76 78 80 82 84 86 88 90 92 94 96 98 100 102 104 106 108 110 112 114 116 118 120 122 124 126 128 130 132 134 136 138 140 142 144 146 148 150 152 154 156 158 160 162 164 166 168 170 172 174 176 178 180 182 184 186 188 190 192 194 196 198 200 </DataArray>
<DataArray  type="UInt8"  Name="types"  format="ascii">3 3 3 3 3 3 3 3 3 3 3 3 3 3 3 3 3 3 3 3 3 3 3 3 3 3 3 3 3 3 3 3 3 3 3 3 3 3 3 3 3 3 3 3 3 3 3 3 3 3 3 3 3 3 3 3 3 3 3 3 3 3 3 3 3 3 3 3 3 3 3 3 3 3 3 3 3 3 3 3 3 3 3 3 3 3 3 3 3 3 3 3 3 3 3 3 3 3 3 3 </DataArray>
</Cells>
<PointData  Scalars="f_14"> 
<DataArray  type="Float64"  Name="f_14"  format="ascii">6.4769845631387074e-04  6.5346430326808337e-04  6.7083573600160639e-04  7.0003493952634300e-04  7.4143391901588943e-04  7.9555704088380341e-04  8.6308458187127639e-04  9.4485727745039513e-04  1.0418818579805151e-03  1.1553375579045888e-03  1.2865835797842443e-03  1.4371674910959454e-03  1.6088345273999154e-03  1.8035377707088594e-03  2.0234491665918862e-03  2.2709713377250720e-03  2.5487501452268594e-03  2.8596879421861504e-03  3.2069574563057374e-03  3.5940162305562284e-03  4.0246215421899639e-03  4.5028457114362945e-03  5.0330917017370148e-03  5.6201089035445607e-03  6.2690089835692863e-03  6.9852816710124698e-03  7.7748103418585025e-03  8.6438872518351181e-03  9.5992282583101125e-03  1.0647986861312920e-02  1.1797767384197981e-02  1.3056637105361856e-02  1.4433137144053891e-02  1.5936291895855565e-02  1.7575616807024998e-02  1.9361124271794431e-02  2.1303327433053933e-02  2.3413241664837516e-02  2.5702383514828401e-02  2.8182766886891825e-02  3.0866896247590352e-02  3.3767756646890627e-02  3.6898800351967020e-02  4.0273929904266863e-02  4.3907477423915535e-02  4.7814180002184084e-02  5.2009151042156601e-02  5.6507847429931986e-02  6.1326032443659993e-02  6.6479734335378321e-02  7.1985200550907902e-02  7.7858847585827201e-02  8.4117206510632300e-02  9.0776864235365823e-02  9.7854400623029178e-02  1.0536632160167486e-01  1.1332898846688753e-01  1.2175854360902967e-01  1.3067083294276016e-01  1.4008132535948378e-01  1.5000502956612241e-01  1.6045640871540720e-01  1.7144929327330266e-01  1.8299679260766394e-01  1.9511120581828331e-01  2.0780393236160419e-01  2.2108538305304179e-01  2.3496489205557941e-01  2.4945063048463112e-01  2.6454952227563799e-01  2.8026716297210180e-01  2.9660774209739271e-01  3.1357396977339991e-01  3.3116700824266787e-01  3.4938640893790185e-01  3.6823005572350875e-01  3.8769411490812161e-01  4.0777299259486272e-01  4.2845929989756637e-01  4.4974382650643269e-01  4.7161552303598120e-01  4.9406149253195658e-01  5.1706699145252688e-01  5.4061544037313192e-01  5.6468844459429846e-01  5.8926582475823241e-01  6.1432565750374857e-01  6.3984432611080755e-01  6.6579658100637851e-01  6.9215560992338732e-01  7.1889311742488327e-01  7.4597941342719942e-01  7.7338351027956553e-01  8.0107322788422153e-01  8.2901530627137787e-01  8.5717552497813165e-01  8.8551882852044128e-01  9.1400945719315330e-01  9.4261108238546598e-01  9.7128694555866968e-01  1.0000000000000000e+00  </DataArray> 
</PointData> 
</Piece>
</UnstructuredGrid>
</VTKFile>