<?xml version="1.0"?>
<VTKFile type="UnstructuredGrid"  version="0.1"  >
<UnstructuredGrid>
<Piece  NumberOfPoints="101" NumberOfCells="100">
<Points>
<DataArray  type="Float64"  NumberOfComponents="3"  format="ascii">0 0 0  0.001 0 0  0.002 0 0  0.003 0 0  0.004 0 0  0.005 0 0  0.006000000000000001 0 0  0.007000000000000001 0 0  0.008 0 0  0.009000000000000001 0 0  0.01 0 0  0.011 0 0  0.012 0 0  0.013 0 0  0.014 0 0  0.015 0 0  0.016 0 0  0.017 0 0  0.018 0 0  0.019 0 0  0.02 0 0  0.021 0 0  0.022 0 0  0.023 0 0  0.024 0 0  0.025 0 0  0.026 0 0  0.027 0 0  0.028 0 0  0.029 0 0  0.03 0 0  0.031 0 0  0.032 0 0  0.033 0 0  0.034 0 0  0.035 0 0  0.036 0 0  0.03700000000000001 0 0  0.03800000000000001 0 0  0.03900000000000001 0 0  0.04 0 0  0.04100000000000001 0 0  0.042 0 0  0.043 0 0  0.044 0 0  0.045 0 0  0.04600000000000001 0 0  0.047 0 0  0.04800000000000001 0 0  0.049 0 0  0.05 0 0  0.051 0 0  0.052 0 0  0.05300000000000001 0 0  0.05400000000000001 0 0  0.055 0 0  0.05600000000000001 0 0  0.057 0 0  0.05800000000000001 0 0  0.059 0 0  0.06 0 0  0.06100000000000001 0 0  0.062 0 0  0.063 0 0  0.064 0 0  0.065 0 0  0.066 0 0  0.067 0 0  0.068 0 0  0.06900000000000001 0 0  0.07000000000000001 0 0  0.07100000000000001 0 0  0.07200000000000001 0 0  0.07300000000000001 0 0  0.07400000000000001 0 0  0.075 0 0  0.07600000000000001 0 0  0.077 0 0  0.07800000000000001 0 0  0.079 0 0  0.08 0 0  0.081 0 0  0.08200000000000002 0 0  0.083 0 0  0.08400000000000001 0 0  0.08500000000000001 0 0  0.08599999999999999 0 0  0.08700000000000001 0 0  0.08800000000000001 0 0  0.08900000000000001 0 0  0.09 0 0  0.091 0 0  0.09200000000000001 0 0  0.09300000000000001 0 0  0.094 0 0  0.095 0 0  0.09600000000000002 0 0  0.09700000000000002 0 0  0.098 0 0  0.099 0 0  0.1 0 0  </DataArray>
</Points>
<Cells>
<DataArray  type="UInt32"  Name="connectivity"  format="ascii">0 1  1 2  2 3  3 4  4 5  5 6  6 7  7 8  8 9  9 10  10 11  11 12  12 13  13 14  14 15  15 16  16 17  17 18  18 19  19 20  20 21  21 22  22 23  23 24  24 25  25 26  26 27  27 28  28 29  29 30  30 31  31 32  32 33  33 34  34 35  35 36  36 37  37 38  38 39  39 40  40 41  41 42  42 43  43 44  44 45  45 46  46 47  47 48  48 49  49 50  50 51  51 52  52 53  53 54  54 55  55 56  56 57  57 58  58 59  59 60  60 61  61 62  62 63  63 64  64 65  65 66  66 67  67 68  68 69  69 70  70 71  71 72  72 73  73 74  74 75  75 76  76 77  77 78  78 79  79 80  80 81  81 82  82 83  83 84  84 85  85 86  86 87  87 88  88 89  89 90  90 91  91 92  92 93  93 94  94 95  95 96  96 97  97 98  98 99  99 100  </DataArray>
<DataArray  type="UInt32"  Name="offsets"  format="ascii">2 4 6 8 10 12 14 16 18 20 22 24 26 28 30 32 34 36 38 40 42 44 46 48 50 52 54 56 58 60 62 64 66 68 70 72 74 76 78 80 82 84 86 88 90 92 94 96 98 100 102 104 106 108 110 112 114 116 118 120 122 124 126 128 130 132 134 136 138 140 142 144 146 148 150 152 154 156 158 160 162 164 166 168 170 172 174 176 178 180 182 184 186 188 190 192 194 196 198 200 </DataArray>
<DataArray  type="UInt8"  Name="types"  format="ascii">3 3 3 3 3 3 3 3 3 3 3 3 3 3 3 3 3 3 3 3 3 3 3 3 3 3 3 3 3 3 3 3 3 3 3 3 3 3 3 3 3 3 3 3 3 3 3 3 3 3 3 3 3 3 3 3 3 3 3 3 3 3 3 3 3 3 3 3 3 3 3 3 3 3 3 3 3 3 3 3 3 3 3 3 3 3 3 3 3 3 3 3 3 3 3 3 3 3 3 3 </DataArray>
</Cells>
<PointData  Scalars="f_14"> 
<DataArray  type="Float64"  Name="f_14"  format="ascii">6.6603274315622394e-07  6.8916288963722994e-07  7.5992920090379438e-07  8.8252623272261672e-07  1.0641704824621877e-06  1.3154473261444126e-06  1.6508140771268505e-06  2.0892769463663922e-06  2.6552653807432413e-06  3.3797334105466461e-06  4.3015243461346497e-06  5.4690425186786190e-06  6.9422838461638175e-06  8.7952859001711722e-06  1.1119067916639575e-05  1.4025141885074601e-05  1.7649687496776298e-05  2.2158496341126142e-05  2.7752804288273244e-05  3.4676145430204966e-05  4.3222376172315039e-05  5.3745033928126897e-05  6.6668211169441003e-05  8.2499142059086863e-05  1.0184271521052879e-04  1.2541814186882962e-04  1.5407802350048447e-04  1.8883007583911420e-04  2.3086177719513354e-04  2.8156821654635832e-04  3.4258342074225379e-04  4.1581543915473508e-04  5.0348545729819575e-04  6.0817119726674625e-04  7.3285484120217694e-04  8.8097568329858274e-04  1.0564876749655332e-03  1.2639219756516501e-03  1.5084545574976026e-03  1.7959788345917006e-03  2.1331831964673141e-03  2.5276332201612821e-03  2.9878582154798570e-03  3.5234416242650550e-03  4.1451146469826681e-03  4.8648523098737380e-03  5.6959710147258631e-03  6.6532264330657126e-03  7.7529104198522285e-03  9.0129454317440603e-03  1.0452974745498814e-02  1.2094446587376394e-02  1.3960690109448568e-02  1.6076980988821338e-02  1.8470594286722559e-02  2.1170842092255150e-02  2.4209093396599119e-02  2.7618773603813835e-02  3.1435341090246288e-02  3.5696238281639703e-02  4.0440814830573747e-02  4.5710220651282614e-02  5.1547266807659212e-02  5.7996252555618216e-02  6.5102757213818335e-02  7.2913395976315340e-02  8.1475539284555906e-02  9.0836995939901063e-02  1.0104566075530606e-01  1.1214912820763606e-01  1.2419427425017456e-01  1.3722680916614832e-01  1.5129080507481876e-01  1.6642820242667650e-01  1.8267830052713974e-01  2.0007723779167916e-01  2.1865746804182443e-01  2.3844723968339637e-01  2.5947008504845132e-01  2.8174432751461209e-01  3.0528261422516706e-01  3.3009148230781726e-01  3.5617096641923407e-01  3.8351425521937244e-01  4.1210740399992024e-01  4.4192911015499092e-01  4.7295055749272058e-01  5.0513533455112192e-01  5.3843943111167358e-01  5.7281131601473489e-01  6.0819209819043873e-01  6.4451577154905348e-01  6.8170954305026266e-01  7.1969424191800180e-01  7.5838480661448460e-01  7.9769084486270025e-01  8.3751726073994226e-01  8.7776494168400232e-01  9.1833149718526619e-01  9.5911204000658190e-01  1.0000000000000000e+00  </DataArray> 
</PointData> 
</Piece>
</UnstructuredGrid>
</VTKFile>