<?xml version="1.0"?>
<VTKFile type="UnstructuredGrid"  version="0.1"  >
<UnstructuredGrid>
<Piece  NumberOfPoints="101" NumberOfCells="100">
<Points>
<DataArray  type="Float64"  NumberOfComponents="3"  format="ascii">0 0 0  0.001 0 0  0.002 0 0  0.003 0 0  0.004 0 0  0.005 0 0  0.006000000000000001 0 0  0.007000000000000001 0 0  0.008 0 0  0.009000000000000001 0 0  0.01 0 0  0.011 0 0  0.012 0 0  0.013 0 0  0.014 0 0  0.015 0 0  0.016 0 0  0.017 0 0  0.018 0 0  0.019 0 0  0.02 0 0  0.021 0 0  0.022 0 0  0.023 0 0  0.024 0 0  0.025 0 0  0.026 0 0  0.027 0 0  0.028 0 0  0.029 0 0  0.03 0 0  0.031 0 0  0.032 0 0  0.033 0 0  0.034 0 0  0.035 0 0  0.036 0 0  0.03700000000000001 0 0  0.03800000000000001 0 0  0.03900000000000001 0 0  0.04 0 0  0.04100000000000001 0 0  0.042 0 0  0.043 0 0  0.044 0 0  0.045 0 0  0.04600000000000001 0 0  0.047 0 0  0.04800000000000001 0 0  0.049 0 0  0.05 0 0  0.051 0 0  0.052 0 0  0.05300000000000001 0 0  0.05400000000000001 0 0  0.055 0 0  0.05600000000000001 0 0  0.057 0 0  0.05800000000000001 0 0  0.059 0 0  0.06 0 0  0.06100000000000001 0 0  0.062 0 0  0.063 0 0  0.064 0 0  0.065 0 0  0.066 0 0  0.067 0 0  0.068 0 0  0.06900000000000001 0 0  0.07000000000000001 0 0  0.07100000000000001 0 0  0.07200000000000001 0 0  0.07300000000000001 0 0  0.07400000000000001 0 0  0.075 0 0  0.07600000000000001 0 0  0.077 0 0  0.07800000000000001 0 0  0.079 0 0  0.08 0 0  0.081 0 0  0.08200000000000002 0 0  0.083 0 0  0.08400000000000001 0 0  0.08500000000000001 0 0  0.08599999999999999 0 0  0.08700000000000001 0 0  0.08800000000000001 0 0  0.08900000000000001 0 0  0.09 0 0  0.091 0 0  0.09200000000000001 0 0  0.09300000000000001 0 0  0.094 0 0  0.095 0 0  0.09600000000000002 0 0  0.09700000000000002 0 0  0.098 0 0  0.099 0 0  0.1 0 0  </DataArray>
</Points>
<Cells>
<DataArray  type="UInt32"  Name="connectivity"  format="ascii">0 1  1 2  2 3  3 4  4 5  5 6  6 7  7 8  8 9  9 10  10 11  11 12  12 13  13 14  14 15  15 16  16 17  17 18  18 19  19 20  20 21  21 22  22 23  23 24  24 25  25 26  26 27  27 28  28 29  29 30  30 31  31 32  32 33  33 34  34 35  35 36  36 37  37 38  38 39  39 40  40 41  41 42  42 43  43 44  44 45  45 46  46 47  47 48  48 49  49 50  50 51  51 52  52 53  53 54  54 55  55 56  56 57  57 58  58 59  59 60  60 61  61 62  62 63  63 64  64 65  65 66  66 67  67 68  68 69  69 70  70 71  71 72  72 73  73 74  74 75  75 76  76 77  77 78  78 79  79 80  80 81  81 82  82 83  83 84  84 85  85 86  86 87  87 88  88 89  89 90  90 91  91 92  92 93  93 94  94 95  95 96  96 97  97 98  98 99  99 100  </DataArray>
<DataArray  type="UInt32"  Name="offsets"  format="ascii">2 4 6 8 10 12 14 16 18 20 22 24 26 28 30 32 34 36 38 40 42 44 46 48 50 52 54 56 58 60 62 64 66 68 70 72 74 76 78 80 82 84 86 88 90 92 94 96 98 100 102 104 106 108 110 112 114 116 118 120 122 124 126 128 130 132 134 136 138 140 142 144 146 148 150 152 154 156 158 160 162 164 166 168 170 172 174 176 178 180 182 184 186 188 190 192 194 196 198 200 </DataArray>
<DataArray  type="UInt8"  Name="types"  format="ascii">3 3 3 3 3 3 3 3 3 3 3 3 3 3 3 3 3 3 3 3 3 3 3 3 3 3 3 3 3 3 3 3 3 3 3 3 3 3 3 3 3 3 3 3 3 3 3 3 3 3 3 3 3 3 3 3 3 3 3 3 3 3 3 3 3 3 3 3 3 3 3 3 3 3 3 3 3 3 3 3 3 3 3 3 3 3 3 3 3 3 3 3 3 3 3 3 3 3 3 3 </DataArray>
</Cells>
<PointData  Scalars="f_14"> 
<DataArray  type="Float64"  Name="f_14"  format="ascii">5.0601870649635849e-04  5.1084075403618628e-04  5.2537387517241066e-04  5.4981952755803741e-04  5.8451521358556522e-04  6.2993708733747830e-04  6.8670359916969052e-04  7.5558017246529763e-04  8.3748490508818690e-04  9.3349528572911811e-04  1.0448559126046808e-03  1.1729871987799564e-03  1.3194950446819456e-03  1.4861814541017150e-03  1.6750560651045705e-03  1.8883485617426725e-03  2.1285219262653430e-03  2.3982864846301558e-03  2.7006146905245135e-03  3.0387565848155927e-03  3.4162558583712976e-03  3.8369664365639844e-03  4.3050694935234390e-03  4.8250907934016454e-03  5.4019182446193234e-03  6.0408195413686194e-03  6.7474597546482934e-03  7.5279187229235368e-03  8.3887080802635579e-03  9.3367877476625959e-03  1.0379581701354846e-02  1.1524992820464895e-02  1.2781416605478864e-02  1.4157753548975482e-02  1.5663419931025890e-02  1.7308356803870849e-02  1.9103036924131497e-02  2.1058469386125628e-02  2.3186201707064806e-02  2.5498319114215091e-02  2.8007440785722502e-02  3.0726712800933260e-02  3.3669797562858469e-02  3.6850859465111845e-02  4.0284546588323651e-02  4.3985968226827245e-02  4.7970668065407264e-02  5.2254592848143717e-02  5.6854056406905135e-02  6.1785698945800493e-02  6.7066441509841326e-02  7.2713435601061915e-02  7.8744007943254604e-02  8.5175600437074214e-02  9.2025705390304927e-02  9.9311796153252016e-02  1.0705125333616819e-01  1.1526128683394558e-01  1.2395885393256463e-01  1.3316057382148797e-01  1.4288263888582456e-01  1.5314072320108432e-01  1.6394988870114616e-01  1.7532448953605773e-01  1.8727807517986050e-01  1.9982329288919937e-01  2.1297179015038595e-01  2.2673411778527222e-01  2.4111963441416479e-01  2.5613641299652284e-01  2.7179115018683919e-01  2.8808907925343286e-01  3.0503388731149322e-01  3.2262763761826690e-01  3.4087069766750910e-01  3.5976167380204582e-01  3.7929735303741646e-01  3.9947265275606575e-01  4.2028057889054760e-01  4.4171219316580629e-01  4.6375658991518476e-01  4.8640088292263661e-01  5.0963020267526160e-01  5.3342770433621833e-01  5.5777458666899005e-01  5.8265012206058586e-01  6.0803169770435816e-01  6.3389486791356653e-01  6.6021341744551210e-01  6.8695943562401052e-01  7.1410340095605807e-01  7.4161427584788819e-01  7.6945961093711190e-01  7.9760565847236709e-01  8.2601749409077796e-01  8.5465914626750639e-01  8.8349373264165743e-01  9.1248360235958115e-01  9.4159048352094932e-01  9.7077563476553996e-01  1.0000000000000000e+00  </DataArray> 
</PointData> 
</Piece>
</UnstructuredGrid>
</VTKFile>