<?xml version="1.0"?>
<VTKFile type="UnstructuredGrid"  version="0.1"  >
<UnstructuredGrid>
<Piece  NumberOfPoints="101" NumberOfCells="100">
<Points>
<DataArray  type="Float64"  NumberOfComponents="3"  format="ascii">0 0 0  0.001 0 0  0.002 0 0  0.003 0 0  0.004 0 0  0.005 0 0  0.006000000000000001 0 0  0.007000000000000001 0 0  0.008 0 0  0.009000000000000001 0 0  0.01 0 0  0.011 0 0  0.012 0 0  0.013 0 0  0.014 0 0  0.015 0 0  0.016 0 0  0.017 0 0  0.018 0 0  0.019 0 0  0.02 0 0  0.021 0 0  0.022 0 0  0.023 0 0  0.024 0 0  0.025 0 0  0.026 0 0  0.027 0 0  0.028 0 0  0.029 0 0  0.03 0 0  0.031 0 0  0.032 0 0  0.033 0 0  0.034 0 0  0.035 0 0  0.036 0 0  0.03700000000000001 0 0  0.03800000000000001 0 0  0.03900000000000001 0 0  0.04 0 0  0.04100000000000001 0 0  0.042 0 0  0.043 0 0  0.044 0 0  0.045 0 0  0.04600000000000001 0 0  0.047 0 0  0.04800000000000001 0 0  0.049 0 0  0.05 0 0  0.051 0 0  0.052 0 0  0.05300000000000001 0 0  0.05400000000000001 0 0  0.055 0 0  0.05600000000000001 0 0  0.057 0 0  0.05800000000000001 0 0  0.059 0 0  0.06 0 0  0.06100000000000001 0 0  0.062 0 0  0.063 0 0  0.064 0 0  0.065 0 0  0.066 0 0  0.067 0 0  0.068 0 0  0.06900000000000001 0 0  0.07000000000000001 0 0  0.07100000000000001 0 0  0.07200000000000001 0 0  0.07300000000000001 0 0  0.07400000000000001 0 0  0.075 0 0  0.07600000000000001 0 0  0.077 0 0  0.07800000000000001 0 0  0.079 0 0  0.08 0 0  0.081 0 0  0.08200000000000002 0 0  0.083 0 0  0.08400000000000001 0 0  0.08500000000000001 0 0  0.08599999999999999 0 0  0.08700000000000001 0 0  0.08800000000000001 0 0  0.08900000000000001 0 0  0.09 0 0  0.091 0 0  0.09200000000000001 0 0  0.09300000000000001 0 0  0.094 0 0  0.095 0 0  0.09600000000000002 0 0  0.09700000000000002 0 0  0.098 0 0  0.099 0 0  0.1 0 0  </DataArray>
</Points>
<Cells>
<DataArray  type="UInt32"  Name="connectivity"  format="ascii">0 1  1 2  2 3  3 4  4 5  5 6  6 7  7 8  8 9  9 10  10 11  11 12  12 13  13 14  14 15  15 16  16 17  17 18  18 19  19 20  20 21  21 22  22 23  23 24  24 25  25 26  26 27  27 28  28 29  29 30  30 31  31 32  32 33  33 34  34 35  35 36  36 37  37 38  38 39  39 40  40 41  41 42  42 43  43 44  44 45  45 46  46 47  47 48  48 49  49 50  50 51  51 52  52 53  53 54  54 55  55 56  56 57  57 58  58 59  59 60  60 61  61 62  62 63  63 64  64 65  65 66  66 67  67 68  68 69  69 70  70 71  71 72  72 73  73 74  74 75  75 76  76 77  77 78  78 79  79 80  80 81  81 82  82 83  83 84  84 85  85 86  86 87  87 88  88 89  89 90  90 91  91 92  92 93  93 94  94 95  95 96  96 97  97 98  98 99  99 100  </DataArray>
<DataArray  type="UInt32"  Name="offsets"  format="ascii">2 4 6 8 10 12 14 16 18 20 22 24 26 28 30 32 34 36 38 40 42 44 46 48 50 52 54 56 58 60 62 64 66 68 70 72 74 76 78 80 82 84 86 88 90 92 94 96 98 100 102 104 106 108 110 112 114 116 118 120 122 124 126 128 130 132 134 136 138 140 142 144 146 148 150 152 154 156 158 160 162 164 166 168 170 172 174 176 178 180 182 184 186 188 190 192 194 196 198 200 </DataArray>
<DataArray  type="UInt8"  Name="types"  format="ascii">3 3 3 3 3 3 3 3 3 3 3 3 3 3 3 3 3 3 3 3 3 3 3 3 3 3 3 3 3 3 3 3 3 3 3 3 3 3 3 3 3 3 3 3 3 3 3 3 3 3 3 3 3 3 3 3 3 3 3 3 3 3 3 3 3 3 3 3 3 3 3 3 3 3 3 3 3 3 3 3 3 3 3 3 3 3 3 3 3 3 3 3 3 3 3 3 3 3 3 3 </DataArray>
</Cells>
<PointData  Scalars="f_14"> 
<DataArray  type="Float64"  Name="f_14"  format="ascii">3.1221059993292809e-04  3.1558904449206733e-04  3.2577884142316745e-04  3.4294390793974646e-04  3.6735919786212522e-04  3.9941334028205535e-04  4.3961233546553863e-04  4.8858430938553447e-04  5.4708532813258414e-04  6.1600627290612987e-04  6.9638077525830495e-04  7.8939421066417741e-04  8.9639374625085700e-04  1.0188994355602268e-03  1.1586163494798007e-03  1.3174477278933736e-03  1.4975091311255583e-03  1.7011435638385759e-03  1.9309375366524956e-03  2.1897380223793524e-03  2.4806702543777571e-03  2.8071563041520021e-03  3.1729343639576540e-03  3.5820786478701102e-03  4.0390198115767030e-03  4.5485657771388854e-03  5.1159228342300975e-03  5.7467168739991879e-03  6.4470145958715266e-03  7.2233445114341975e-03  8.0827175532333650e-03  9.0326470800374953e-03  1.0081168054105914e-02  1.1236855150485002e-02  1.2508839543586990e-02  1.3906824102559669e-02  1.5441096714512053e-02  1.7122541443815833e-02  1.8962647226756665e-02  2.0973513794068720e-02  2.3167854509655358e-02  2.5558995812378495e-02  2.8160872949478888e-02  3.0988021695245914e-02  3.4055565757239045e-02  3.7379199584907465e-02  4.0975166312050691e-02  4.4860230585370656e-02  4.9051646056503896e-02  5.3567117344447489e-02  5.8424756309230441e-02  6.3643032515970518e-02  6.9240717811003605e-02  7.5236824978389488e-02  8.1650540495551427e-02  8.8501151460781274e-02  9.5807966822453766e-02  1.0359023309959146e-01  1.1186704484538833e-01  1.2065725016883841e-01  1.2997935169410005e-01  1.3985140340192770e-01  1.5029090386169766e-01  1.6131468642543403e-01  1.7293880701598441e-01  1.8517843019927374e-01  1.9804771428450324e-01  2.1155969624542606e-01  2.2572617729957839e-01  2.4055761001976400e-01  2.5606298788242032e-01  2.7224973818001469e-01  2.8912361923869334e-01  3.0668862288746429e-01  3.2494688312076869e-01  3.4389859188201638e-01  3.6354192287127984e-01  3.8387296424571482e-01  4.0488566103643758e-01  4.2657176805060210e-01  4.4892081396266559e-01  4.7192007722458956e-01  4.9555457434166400e-01  5.1980706096936113e-01  5.4465804618798574e-01  5.7008582020678866e-01  5.9606649563873160e-01  6.2257406237233981e-01  6.4958045594929537e-01  6.7705563923694267e-01  7.0496769706495499e-01  7.3328294337654998e-01  7.6196604032813098e-01  7.9098012865853806e-01  8.2028696854153227e-01  8.4984709003405634e-01  8.7961995213945299e-01  9.0956410942035715e-01  9.3963738502146810e-01  9.6979704889878571e-01  1.0000000000000000e+00  </DataArray> 
</PointData> 
</Piece>
</UnstructuredGrid>
</VTKFile>