<?xml version="1.0"?>
<VTKFile type="UnstructuredGrid"  version="0.1"  >
<UnstructuredGrid>
<Piece  NumberOfPoints="101" NumberOfCells="100">
<Points>
<DataArray  type="Float64"  NumberOfComponents="3"  format="ascii">0 0 0  0.001 0 0  0.002 0 0  0.003 0 0  0.004 0 0  0.005 0 0  0.006000000000000001 0 0  0.007000000000000001 0 0  0.008 0 0  0.009000000000000001 0 0  0.01 0 0  0.011 0 0  0.012 0 0  0.013 0 0  0.014 0 0  0.015 0 0  0.016 0 0  0.017 0 0  0.018 0 0  0.019 0 0  0.02 0 0  0.021 0 0  0.022 0 0  0.023 0 0  0.024 0 0  0.025 0 0  0.026 0 0  0.027 0 0  0.028 0 0  0.029 0 0  0.03 0 0  0.031 0 0  0.032 0 0  0.033 0 0  0.034 0 0  0.035 0 0  0.036 0 0  0.03700000000000001 0 0  0.03800000000000001 0 0  0.03900000000000001 0 0  0.04 0 0  0.04100000000000001 0 0  0.042 0 0  0.043 0 0  0.044 0 0  0.045 0 0  0.04600000000000001 0 0  0.047 0 0  0.04800000000000001 0 0  0.049 0 0  0.05 0 0  0.051 0 0  0.052 0 0  0.05300000000000001 0 0  0.05400000000000001 0 0  0.055 0 0  0.05600000000000001 0 0  0.057 0 0  0.05800000000000001 0 0  0.059 0 0  0.06 0 0  0.06100000000000001 0 0  0.062 0 0  0.063 0 0  0.064 0 0  0.065 0 0  0.066 0 0  0.067 0 0  0.068 0 0  0.06900000000000001 0 0  0.07000000000000001 0 0  0.07100000000000001 0 0  0.07200000000000001 0 0  0.07300000000000001 0 0  0.07400000000000001 0 0  0.075 0 0  0.07600000000000001 0 0  0.077 0 0  0.07800000000000001 0 0  0.079 0 0  0.08 0 0  0.081 0 0  0.08200000000000002 0 0  0.083 0 0  0.08400000000000001 0 0  0.08500000000000001 0 0  0.08599999999999999 0 0  0.08700000000000001 0 0  0.08800000000000001 0 0  0.08900000000000001 0 0  0.09 0 0  0.091 0 0  0.09200000000000001 0 0  0.09300000000000001 0 0  0.094 0 0  0.095 0 0  0.09600000000000002 0 0  0.09700000000000002 0 0  0.098 0 0  0.099 0 0  0.1 0 0  </DataArray>
</Points>
<Cells>
<DataArray  type="UInt32"  Name="connectivity"  format="ascii">0 1  1 2  2 3  3 4  4 5  5 6  6 7  7 8  8 9  9 10  10 11  11 12  12 13  13 14  14 15  15 16  16 17  17 18  18 19  19 20  20 21  21 22  22 23  23 24  24 25  25 26  26 27  27 28  28 29  29 30  30 31  31 32  32 33  33 34  34 35  35 36  36 37  37 38  38 39  39 40  40 41  41 42  42 43  43 44  44 45  45 46  46 47  47 48  48 49  49 50  50 51  51 52  52 53  53 54  54 55  55 56  56 57  57 58  58 59  59 60  60 61  61 62  62 63  63 64  64 65  65 66  66 67  67 68  68 69  69 70  70 71  71 72  72 73  73 74  74 75  75 76  76 77  77 78  78 79  79 80  80 81  81 82  82 83  83 84  84 85  85 86  86 87  87 88  88 89  89 90  90 91  91 92  92 93  93 94  94 95  95 96  96 97  97 98  98 99  99 100  </DataArray>
<DataArray  type="UInt32"  Name="offsets"  format="ascii">2 4 6 8 10 12 14 16 18 20 22 24 26 28 30 32 34 36 38 40 42 44 46 48 50 52 54 56 58 60 62 64 66 68 70 72 74 76 78 80 82 84 86 88 90 92 94 96 98 100 102 104 106 108 110 112 114 116 118 120 122 124 126 128 130 132 134 136 138 140 142 144 146 148 150 152 154 156 158 160 162 164 166 168 170 172 174 176 178 180 182 184 186 188 190 192 194 196 198 200 </DataArray>
<DataArray  type="UInt8"  Name="types"  format="ascii">3 3 3 3 3 3 3 3 3 3 3 3 3 3 3 3 3 3 3 3 3 3 3 3 3 3 3 3 3 3 3 3 3 3 3 3 3 3 3 3 3 3 3 3 3 3 3 3 3 3 3 3 3 3 3 3 3 3 3 3 3 3 3 3 3 3 3 3 3 3 3 3 3 3 3 3 3 3 3 3 3 3 3 3 3 3 3 3 3 3 3 3 3 3 3 3 3 3 3 3 </DataArray>
</Cells>
<PointData  Scalars="f_14"> 
<DataArray  type="Float64"  Name="f_14"  format="ascii">4.5557977697068017e-05  4.6324187244597803e-05  4.8643281066603831e-05  5.2577041440823065e-05  5.8229731490782044e-05  6.5750046495248202e-05  7.5333870238799389e-05  8.7227860638855616e-05  1.0173389539899164e-04  1.1921441463323552e-04  1.4009870319719946e-04  1.6489016075778098e-04  1.9417461233410869e-04  2.2862971603987162e-04  2.6903552793351075e-04  3.1628628611117917e-04  3.7140347732231711e-04  4.3555024930551719e-04  5.1004723058260544e-04  5.9638981645576856e-04  6.9626697526725234e-04  8.1158162244415483e-04  9.4447260130517592e-04  1.0973382989010179e-03  1.2728619121546534e-03  1.4740383641358493e-03  1.7042028523395921e-03  1.9670609902586573e-03  2.2667204802953012e-03  2.6077242301306117e-03  2.9950847960893757e-03  3.4343200058778848e-03  3.9314895794598046e-03  4.4932325309578547e-03  5.1268050965761237e-03  5.8401188939472002e-03  6.6417789774076141e-03  7.5411214119552004e-03  8.5482499465771352e-03  9.6740713258647148e-03  1.0930328738028473e-02  1.2329632858339303e-02  1.3885489910453094e-02  1.5612326134887111e-02  1.7525508025004650e-02  1.9641357667164946e-02  2.1977162504154216e-02  2.4551178830579352e-02  2.7382628326513045e-02  3.0491686942216621e-02  3.3899465463078642e-02  3.7627981110741900e-02  4.1700119574412844e-02  4.6139586916077079e-02  5.0970850855171883e-02  5.6219071012401943e-02  6.1910017778855589e-02  6.8069979575202041e-02  7.4725658376128032e-02  8.1904053496656387e-02  8.9632333768716488e-02  9.7937698377159932e-02  1.0684722677298039e-01  1.1638771823618019e-01  1.2658552181968369e-01  1.3746635756688771e-01  1.4905513005659923e-01  1.6137573548784773e-01  1.7445086367083296e-01  1.8830179643645115e-01  2.0294820411276560e-01  2.1840794183977227e-01  2.3469684760123610e-01  2.5182854394171178e-01  2.6981424540574661e-01  2.8866257378252297e-01  3.0837938326093356e-01  3.2896759759568439e-01  3.5042706135327067e-01  3.7275440724665643e-01  3.9594294147888071e-01  4.1998254889852954e-01  4.4485961962467496e-01  4.7055699862639383e-01  4.9705395954388876e-01  5.2432620381645656e-01  5.5234588593955913e-01  5.8108166541186412e-01  6.1049878565660964e-01  6.4055917991364986e-01  6.7122160380285500e-01  7.0244179396042039e-01  7.3417265185126213e-01  7.6636445156748045e-01  7.9896507013920415e-01  8.3192023861429720e-01  8.6517381191157294e-01  8.9866805522226634e-01  9.3234394453012359e-01  9.6614147864489386e-01  1.0000000000000000e+00  </DataArray> 
</PointData> 
</Piece>
</UnstructuredGrid>
</VTKFile>