<?xml version="1.0"?>
<VTKFile type="UnstructuredGrid"  version="0.1"  >
<UnstructuredGrid>
<Piece  NumberOfPoints="101" NumberOfCells="100">
<Points>
<DataArray  type="Float64"  NumberOfComponents="3"  format="ascii">0 0 0  0.001 0 0  0.002 0 0  0.003 0 0  0.004 0 0  0.005 0 0  0.006000000000000001 0 0  0.007000000000000001 0 0  0.008 0 0  0.009000000000000001 0 0  0.01 0 0  0.011 0 0  0.012 0 0  0.013 0 0  0.014 0 0  0.015 0 0  0.016 0 0  0.017 0 0  0.018 0 0  0.019 0 0  0.02 0 0  0.021 0 0  0.022 0 0  0.023 0 0  0.024 0 0  0.025 0 0  0.026 0 0  0.027 0 0  0.028 0 0  0.029 0 0  0.03 0 0  0.031 0 0  0.032 0 0  0.033 0 0  0.034 0 0  0.035 0 0  0.036 0 0  0.03700000000000001 0 0  0.03800000000000001 0 0  0.03900000000000001 0 0  0.04 0 0  0.04100000000000001 0 0  0.042 0 0  0.043 0 0  0.044 0 0  0.045 0 0  0.04600000000000001 0 0  0.047 0 0  0.04800000000000001 0 0  0.049 0 0  0.05 0 0  0.051 0 0  0.052 0 0  0.05300000000000001 0 0  0.05400000000000001 0 0  0.055 0 0  0.05600000000000001 0 0  0.057 0 0  0.05800000000000001 0 0  0.059 0 0  0.06 0 0  0.06100000000000001 0 0  0.062 0 0  0.063 0 0  0.064 0 0  0.065 0 0  0.066 0 0  0.067 0 0  0.068 0 0  0.06900000000000001 0 0  0.07000000000000001 0 0  0.07100000000000001 0 0  0.07200000000000001 0 0  0.07300000000000001 0 0  0.07400000000000001 0 0  0.075 0 0  0.07600000000000001 0 0  0.077 0 0  0.07800000000000001 0 0  0.079 0 0  0.08 0 0  0.081 0 0  0.08200000000000002 0 0  0.083 0 0  0.08400000000000001 0 0  0.08500000000000001 0 0  0.08599999999999999 0 0  0.08700000000000001 0 0  0.08800000000000001 0 0  0.08900000000000001 0 0  0.09 0 0  0.091 0 0  0.09200000000000001 0 0  0.09300000000000001 0 0  0.094 0 0  0.095 0 0  0.09600000000000002 0 0  0.09700000000000002 0 0  0.098 0 0  0.099 0 0  0.1 0 0  </DataArray>
</Points>
<Cells>
<DataArray  type="UInt32"  Name="connectivity"  format="ascii">0 1  1 2  2 3  3 4  4 5  5 6  6 7  7 8  8 9  9 10  10 11  11 12  12 13  13 14  14 15  15 16  16 17  17 18  18 19  19 20  20 21  21 22  22 23  23 24  24 25  25 26  26 27  27 28  28 29  29 30  30 31  31 32  32 33  33 34  34 35  35 36  36 37  37 38  38 39  39 40  40 41  41 42  42 43  43 44  44 45  45 46  46 47  47 48  48 49  49 50  50 51  51 52  52 53  53 54  54 55  55 56  56 57  57 58  58 59  59 60  60 61  61 62  62 63  63 64  64 65  65 66  66 67  67 68  68 69  69 70  70 71  71 72  72 73  73 74  74 75  75 76  76 77  77 78  78 79  79 80  80 81  81 82  82 83  83 84  84 85  85 86  86 87  87 88  88 89  89 90  90 91  91 92  92 93  93 94  94 95  95 96  96 97  97 98  98 99  99 100  </DataArray>
<DataArray  type="UInt32"  Name="offsets"  format="ascii">2 4 6 8 10 12 14 16 18 20 22 24 26 28 30 32 34 36 38 40 42 44 46 48 50 52 54 56 58 60 62 64 66 68 70 72 74 76 78 80 82 84 86 88 90 92 94 96 98 100 102 104 106 108 110 112 114 116 118 120 122 124 126 128 130 132 134 136 138 140 142 144 146 148 150 152 154 156 158 160 162 164 166 168 170 172 174 176 178 180 182 184 186 188 190 192 194 196 198 200 </DataArray>
<DataArray  type="UInt8"  Name="types"  format="ascii">3 3 3 3 3 3 3 3 3 3 3 3 3 3 3 3 3 3 3 3 3 3 3 3 3 3 3 3 3 3 3 3 3 3 3 3 3 3 3 3 3 3 3 3 3 3 3 3 3 3 3 3 3 3 3 3 3 3 3 3 3 3 3 3 3 3 3 3 3 3 3 3 3 3 3 3 3 3 3 3 3 3 3 3 3 3 3 3 3 3 3 3 3 3 3 3 3 3 3 3 </DataArray>
</Cells>
<PointData  Scalars="f_14"> 
<DataArray  type="Float64"  Name="f_14"  format="ascii">1.1865935129221127e-04  1.2028091937745255e-04  1.2517984408456158e-04  1.3345926508586130e-04  1.4529267843441668e-04  1.6092633913349720e-04  1.8068263990255641e-04  2.0496448090499692e-04  2.3426064884349016e-04  2.6915222703257730e-04  3.1032006072575000e-04  3.5855330400391677e-04  4.1475907582167278e-04  4.7997325325384630e-04  5.5537242948384144e-04  6.4228706252431088e-04  7.4221583795815106e-04  8.5684126503497780e-04  9.8804652016072419e-04  1.1379335450874639e-03  1.3088423988668323e-03  1.5033718528036631e-03  1.7244012061797354e-03  1.9751132873693763e-03  2.2590185901159173e-03  2.5799804781787071e-03  2.9422413733167039e-03  3.3504498216958148e-03  3.8096883123722842e-03  4.3255016986251385e-03  4.9039260487338254e-03  5.5515177275063518e-03  6.2753824836811398e-03  7.0832042915150838e-03  7.9832736677337337e-03  8.9845151579009686e-03  1.0096513659547751e-02  1.1329539223503377e-02  1.2694569950253922e-02  1.4203312575298596e-02  1.5868220316899544e-02  1.7702507541859456e-02  1.9720160790563324e-02  2.1935945692043299e-02  2.4365409293820316e-02  2.7024877330289028e-02  2.9931445957961603e-02  3.3102967496458351e-02  3.6558029731176500e-02  4.0315928357462255e-02  4.4396632177183711e-02  4.8820740697082546e-02  5.3609433824328444e-02  5.8784413408349154e-02  6.4367836439202492e-02  7.0382239781303951e-02  7.6850456396916150e-02  8.3795523095993196e-02  9.1240579937183652e-02  9.9208761498295744e-02  1.0772308033248743e-01  1.1680630302785176e-01  1.2648081939184116e-01  1.3676850538687191e-01  1.4769058054814874e-01  1.5926746071784884e-01  1.7151860702979962e-01  1.8446237217416325e-01  1.9811584506082980e-01  2.1249469508166549e-01  2.2761301724391980e-01  2.4348317950847700e-01  2.6011567371583627e-01  2.7751897151840960e-01  2.9569938675876972e-01  3.1466094573884767e-01  3.3440526681394461e-01  3.5493145071714977e-01  3.7623598297399002e-01  3.9831264970365254e-01  4.2115246802212525e-01  4.4474363216435026e-01  4.6907147632772839e-01  4.9411845510887281e-01  5.1986414226062305e-01  5.4628524833838399e-01  5.7335565763554930e-01  6.0104648462897281e-01  6.2932614996923653e-01  6.5816047585913695e-01  6.8751280046966234e-01  7.1734411084833072e-01  7.4761319358259026e-01  7.7827680229362839e-01  8.0928984085591815e-01  8.4060556106764250e-01  8.7217577333910945e-01  9.0395106882268761e-01  9.3588105128060639e-01  9.6791457687806381e-01  1.0000000000000000e+00  </DataArray> 
</PointData> 
</Piece>
</UnstructuredGrid>
</VTKFile>