<?xml version="1.0"?>
<VTKFile type="UnstructuredGrid"  version="0.1"  >
<UnstructuredGrid>
<Piece  NumberOfPoints="101" NumberOfCells="100">
<Points>
<DataArray  type="Float64"  NumberOfComponents="3"  format="ascii">0 0 0  0.001 0 0  0.002 0 0  0.003 0 0  0.004 0 0  0.005 0 0  0.006000000000000001 0 0  0.007000000000000001 0 0  0.008 0 0  0.009000000000000001 0 0  0.01 0 0  0.011 0 0  0.012 0 0  0.013 0 0  0.014 0 0  0.015 0 0  0.016 0 0  0.017 0 0  0.018 0 0  0.019 0 0  0.02 0 0  0.021 0 0  0.022 0 0  0.023 0 0  0.024 0 0  0.025 0 0  0.026 0 0  0.027 0 0  0.028 0 0  0.029 0 0  0.03 0 0  0.031 0 0  0.032 0 0  0.033 0 0  0.034 0 0  0.035 0 0  0.036 0 0  0.03700000000000001 0 0  0.03800000000000001 0 0  0.03900000000000001 0 0  0.04 0 0  0.04100000000000001 0 0  0.042 0 0  0.043 0 0  0.044 0 0  0.045 0 0  0.04600000000000001 0 0  0.047 0 0  0.04800000000000001 0 0  0.049 0 0  0.05 0 0  0.051 0 0  0.052 0 0  0.05300000000000001 0 0  0.05400000000000001 0 0  0.055 0 0  0.05600000000000001 0 0  0.057 0 0  0.05800000000000001 0 0  0.059 0 0  0.06 0 0  0.06100000000000001 0 0  0.062 0 0  0.063 0 0  0.064 0 0  0.065 0 0  0.066 0 0  0.067 0 0  0.068 0 0  0.06900000000000001 0 0  0.07000000000000001 0 0  0.07100000000000001 0 0  0.07200000000000001 0 0  0.07300000000000001 0 0  0.07400000000000001 0 0  0.075 0 0  0.07600000000000001 0 0  0.077 0 0  0.07800000000000001 0 0  0.079 0 0  0.08 0 0  0.081 0 0  0.08200000000000002 0 0  0.083 0 0  0.08400000000000001 0 0  0.08500000000000001 0 0  0.08599999999999999 0 0  0.08700000000000001 0 0  0.08800000000000001 0 0  0.08900000000000001 0 0  0.09 0 0  0.091 0 0  0.09200000000000001 0 0  0.09300000000000001 0 0  0.094 0 0  0.095 0 0  0.09600000000000002 0 0  0.09700000000000002 0 0  0.098 0 0  0.099 0 0  0.1 0 0  </DataArray>
</Points>
<Cells>
<DataArray  type="UInt32"  Name="connectivity"  format="ascii">0 1  1 2  2 3  3 4  4 5  5 6  6 7  7 8  8 9  9 10  10 11  11 12  12 13  13 14  14 15  15 16  16 17  17 18  18 19  19 20  20 21  21 22  22 23  23 24  24 25  25 26  26 27  27 28  28 29  29 30  30 31  31 32  32 33  33 34  34 35  35 36  36 37  37 38  38 39  39 40  40 41  41 42  42 43  43 44  44 45  45 46  46 47  47 48  48 49  49 50  50 51  51 52  52 53  53 54  54 55  55 56  56 57  57 58  58 59  59 60  60 61  61 62  62 63  63 64  64 65  65 66  66 67  67 68  68 69  69 70  70 71  71 72  72 73  73 74  74 75  75 76  76 77  77 78  78 79  79 80  80 81  81 82  82 83  83 84  84 85  85 86  86 87  87 88  88 89  89 90  90 91  91 92  92 93  93 94  94 95  95 96  96 97  97 98  98 99  99 100  </DataArray>
<DataArray  type="UInt32"  Name="offsets"  format="ascii">2 4 6 8 10 12 14 16 18 20 22 24 26 28 30 32 34 36 38 40 42 44 46 48 50 52 54 56 58 60 62 64 66 68 70 72 74 76 78 80 82 84 86 88 90 92 94 96 98 100 102 104 106 108 110 112 114 116 118 120 122 124 126 128 130 132 134 136 138 140 142 144 146 148 150 152 154 156 158 160 162 164 166 168 170 172 174 176 178 180 182 184 186 188 190 192 194 196 198 200 </DataArray>
<DataArray  type="UInt8"  Name="types"  format="ascii">3 3 3 3 3 3 3 3 3 3 3 3 3 3 3 3 3 3 3 3 3 3 3 3 3 3 3 3 3 3 3 3 3 3 3 3 3 3 3 3 3 3 3 3 3 3 3 3 3 3 3 3 3 3 3 3 3 3 3 3 3 3 3 3 3 3 3 3 3 3 3 3 3 3 3 3 3 3 3 3 3 3 3 3 3 3 3 3 3 3 3 3 3 3 3 3 3 3 3 3 </DataArray>
</Cells>
<PointData  Scalars="f_14"> 
<DataArray  type="Float64"  Name="f_14"  format="ascii">2.0006762932326142e-04  2.0248585087366482e-04  2.0978483573758357e-04  2.2209805755711354e-04  2.3964968362846269e-04  2.6275714593695964e-04  2.9183474882187499e-04  3.2739832107637405e-04  3.7007092193240576e-04  4.2058961158717399e-04  4.7981329760173269e-04  5.4873166854936387e-04  6.2847522561996258e-04  7.2032642140757222e-04  8.2573191273590640e-04  9.4631593103006292e-04  1.0838947693461512e-03  1.2404923796555162e-03  1.4183570672862539e-03  1.6199792615010397e-03  1.8481103319978225e-03  2.1057824106326564e-03  2.3963291658709251e-03  2.7234074643806287e-03  3.0910198398140377e-03  3.5035376732277081e-03  3.9657249728337540e-03  4.4827626229497859e-03  5.0602729532394052e-03  5.7043444597544117e-03  6.4215564890773283e-03  7.2190036762197988e-03  8.1043199060893308e-03  9.0857015475525518e-03  1.0171929688683854e-02  1.1372391082007039e-02  1.2697097489751286e-02  1.4156703101709982e-02  1.5762519682589307e-02  1.7526529092154151e-02  1.9461392810423406e-02  2.1580458092041146e-02  2.3897760369158177e-02  2.6428021521098355e-02  2.9186643632133663e-02  3.2189697866215068e-02  3.5453908099827472e-02  3.8996628971547147e-02  4.2835818029627423e-02  4.6990001687204019e-02  5.1478234728633186e-02  5.6320053150099678e-02  6.1535420162949599e-02  6.7144665239104132e-02  7.3168416134211073e-02  7.9627523885605567e-02  8.6542980848307693e-02  9.3935831902702799e-02  1.0182707904167299e-01  1.1023757962209485e-01  1.1918793864505858e-01  1.2869839551003071e-01  1.3878870576958610e-01  1.4947801849226980e-01  1.6078474992057604e-01  1.7272645418787053e-01  1.8531969193119702e-01  1.9857989770517365e-01  2.1252124716446322e-01  2.2715652503747366e-01  2.4249699496093755e-01  2.5855227228280564e-01  2.7533020096852945e-01  2.9283673576244151e-01  3.1107583076083728e-01  3.3004933554590099e-01  3.4975690000934290e-01  3.7019588896119765e-01  3.9136130757258264e-01  4.1324573864128877e-01  4.3583929259621712e-01  4.5912957107117625e-01  4.8310164478113143e-01  5.0773804632537134e-01  5.3301877842325052e-01  5.5892133796029553e-01  5.8542075608687549e-01  6.1248965446975923e-01  6.4009831765028979e-01  6.6821478131335355e-01  6.9680493612046179e-01  7.2583264661004188e-01  7.5525988452023585e-01  7.8504687574600218e-01  8.1515226000496899e-01  8.4553326215702240e-01  8.7614587400277644e-01  9.0694504527742004e-01  9.3788488246042068e-01  9.6891885393946919e-01  1.0000000000000000e+00  </DataArray> 
</PointData> 
</Piece>
</UnstructuredGrid>
</VTKFile>