<?xml version="1.0"?>
<VTKFile type="UnstructuredGrid"  version="0.1"  >
<UnstructuredGrid>
<Piece  NumberOfPoints="101" NumberOfCells="100">
<Points>
<DataArray  type="Float64"  NumberOfComponents="3"  format="ascii">0 0 0  0.001 0 0  0.002 0 0  0.003 0 0  0.004 0 0  0.005 0 0  0.006000000000000001 0 0  0.007000000000000001 0 0  0.008 0 0  0.009000000000000001 0 0  0.01 0 0  0.011 0 0  0.012 0 0  0.013 0 0  0.014 0 0  0.015 0 0  0.016 0 0  0.017 0 0  0.018 0 0  0.019 0 0  0.02 0 0  0.021 0 0  0.022 0 0  0.023 0 0  0.024 0 0  0.025 0 0  0.026 0 0  0.027 0 0  0.028 0 0  0.029 0 0  0.03 0 0  0.031 0 0  0.032 0 0  0.033 0 0  0.034 0 0  0.035 0 0  0.036 0 0  0.03700000000000001 0 0  0.03800000000000001 0 0  0.03900000000000001 0 0  0.04 0 0  0.04100000000000001 0 0  0.042 0 0  0.043 0 0  0.044 0 0  0.045 0 0  0.04600000000000001 0 0  0.047 0 0  0.04800000000000001 0 0  0.049 0 0  0.05 0 0  0.051 0 0  0.052 0 0  0.05300000000000001 0 0  0.05400000000000001 0 0  0.055 0 0  0.05600000000000001 0 0  0.057 0 0  0.05800000000000001 0 0  0.059 0 0  0.06 0 0  0.06100000000000001 0 0  0.062 0 0  0.063 0 0  0.064 0 0  0.065 0 0  0.066 0 0  0.067 0 0  0.068 0 0  0.06900000000000001 0 0  0.07000000000000001 0 0  0.07100000000000001 0 0  0.07200000000000001 0 0  0.07300000000000001 0 0  0.07400000000000001 0 0  0.075 0 0  0.07600000000000001 0 0  0.077 0 0  0.07800000000000001 0 0  0.079 0 0  0.08 0 0  0.081 0 0  0.08200000000000002 0 0  0.083 0 0  0.08400000000000001 0 0  0.08500000000000001 0 0  0.08599999999999999 0 0  0.08700000000000001 0 0  0.08800000000000001 0 0  0.08900000000000001 0 0  0.09 0 0  0.091 0 0  0.09200000000000001 0 0  0.09300000000000001 0 0  0.094 0 0  0.095 0 0  0.09600000000000002 0 0  0.09700000000000002 0 0  0.098 0 0  0.099 0 0  0.1 0 0  </DataArray>
</Points>
<Cells>
<DataArray  type="UInt32"  Name="connectivity"  format="ascii">0 1  1 2  2 3  3 4  4 5  5 6  6 7  7 8  8 9  9 10  10 11  11 12  12 13  13 14  14 15  15 16  16 17  17 18  18 19  19 20  20 21  21 22  22 23  23 24  24 25  25 26  26 27  27 28  28 29  29 30  30 31  31 32  32 33  33 34  34 35  35 36  36 37  37 38  38 39  39 40  40 41  41 42  42 43  43 44  44 45  45 46  46 47  47 48  48 49  49 50  50 51  51 52  52 53  53 54  54 55  55 56  56 57  57 58  58 59  59 60  60 61  61 62  62 63  63 64  64 65  65 66  66 67  67 68  68 69  69 70  70 71  71 72  72 73  73 74  74 75  75 76  76 77  77 78  78 79  79 80  80 81  81 82  82 83  83 84  84 85  85 86  86 87  87 88  88 89  89 90  90 91  91 92  92 93  93 94  94 95  95 96  96 97  97 98  98 99  99 100  </DataArray>
<DataArray  type="UInt32"  Name="offsets"  format="ascii">2 4 6 8 10 12 14 16 18 20 22 24 26 28 30 32 34 36 38 40 42 44 46 48 50 52 54 56 58 60 62 64 66 68 70 72 74 76 78 80 82 84 86 88 90 92 94 96 98 100 102 104 106 108 110 112 114 116 118 120 122 124 126 128 130 132 134 136 138 140 142 144 146 148 150 152 154 156 158 160 162 164 166 168 170 172 174 176 178 180 182 184 186 188 190 192 194 196 198 200 </DataArray>
<DataArray  type="UInt8"  Name="types"  format="ascii">3 3 3 3 3 3 3 3 3 3 3 3 3 3 3 3 3 3 3 3 3 3 3 3 3 3 3 3 3 3 3 3 3 3 3 3 3 3 3 3 3 3 3 3 3 3 3 3 3 3 3 3 3 3 3 3 3 3 3 3 3 3 3 3 3 3 3 3 3 3 3 3 3 3 3 3 3 3 3 3 3 3 3 3 3 3 3 3 3 3 3 3 3 3 3 3 3 3 3 3 </DataArray>
</Cells>
<PointData  Scalars="f_14"> 
<DataArray  type="Float64"  Name="f_14"  format="ascii">2.0428334338629228e-04  2.0674007113562987e-04  2.1415501832834085e-04  2.2666299083002971e-04  2.4449037969231577e-04  2.6795773711442742e-04  2.9748339071000056e-04  3.3358810358983122e-04  3.7690078933271253e-04  4.2816529204116669e-04  4.8824824227195070e-04  5.5814799959930431e-04  6.3900469182084202e-04  7.3211135926337309e-04  8.3892621020400918e-04  9.6108599001055875e-04  1.1004204621499617e-03  1.2589679936468952e-03  1.4389922308376195e-03  1.6429998433073253e-03  1.8737593046850973e-03  2.1343206684746995e-03  2.4280362853123963e-03  2.7585823949727402e-03  3.1299815121161494e-03  3.5466255092353842e-03  4.0132992835814306e-03  4.5352048771264523e-03  5.1179858999716712e-03  5.7677520881771237e-03  6.4911038069519131e-03  7.2951562896994204e-03  8.1875633827920343e-03  9.1765405454126998e-03  1.0270886833630540e-02  1.1480005578386769e-02  1.2813923448589282e-02  1.4283307573405953e-02  1.5899480382481238e-02  1.7674431809566009e-02  1.9620828494343340e-02  2.1752019609453953e-02  2.4082038935272769e-02  2.6625602804254255e-02  2.9398103540020856e-02  3.2415598024172348e-02  3.5694791036362840e-02  3.9253013030809518e-02  4.3108192035305401e-02  4.7278819387180225e-02  5.1783909054622879e-02  5.6642950331383113e-02  6.1875853738098417e-02  6.7502890014227449e-02  7.3544622140627153e-02  8.0021830393900414e-02  8.6955430499387712e-02  9.4366385019604718e-02  1.0227560818847803e-01  1.1070386447822962e-01  1.1967166126447777e-01  1.2919913603520156e-01  1.3930593866977087e-01  1.5001110939428325e-01  1.6133295309793852e-01  1.7328891077106096e-01  1.8589542889751642e-01  1.9916782770156696e-01  2.1312016921052221e-01  2.2776512614880096e-01  2.4311385272512864e-01  2.5917585841157798e-01  2.7595888584006512e-01  2.9346879395792119e-01  3.1170944758852792e-01  3.3068261453515013e-01  3.5038787134555932e-01  3.7082251882151418e-01  3.9198150831054329e-01  4.1385737975775749e-01  4.3644021242291348e-01  4.5971758908297661e-01  4.8367457444369943e-01  5.0829370837593568e-01  5.3355501447460241e-01  5.5943602431145278e-01  5.8591181761848488e-01  6.1295507849829522e-01  6.4053616761253829e-01  6.6862321015162451e-01  6.9718219923948876e-01  7.2617711427864395e-01  7.5557005359451479e-01  7.8532138059613621e-01  8.1538988253445277e-01  8.4573294081146666e-01  8.7630671167498808e-01  9.0706631602633803e-01  9.3796603697344116e-01  9.6895952368060356e-01  1.0000000000000000e+00  </DataArray> 
</PointData> 
</Piece>
</UnstructuredGrid>
</VTKFile>