<?xml version="1.0"?>
<VTKFile type="UnstructuredGrid"  version="0.1"  >
<UnstructuredGrid>
<Piece  NumberOfPoints="101" NumberOfCells="100">
<Points>
<DataArray  type="Float64"  NumberOfComponents="3"  format="ascii">0 0 0  0.001 0 0  0.002 0 0  0.003 0 0  0.004 0 0  0.005 0 0  0.006000000000000001 0 0  0.007000000000000001 0 0  0.008 0 0  0.009000000000000001 0 0  0.01 0 0  0.011 0 0  0.012 0 0  0.013 0 0  0.014 0 0  0.015 0 0  0.016 0 0  0.017 0 0  0.018 0 0  0.019 0 0  0.02 0 0  0.021 0 0  0.022 0 0  0.023 0 0  0.024 0 0  0.025 0 0  0.026 0 0  0.027 0 0  0.028 0 0  0.029 0 0  0.03 0 0  0.031 0 0  0.032 0 0  0.033 0 0  0.034 0 0  0.035 0 0  0.036 0 0  0.03700000000000001 0 0  0.03800000000000001 0 0  0.03900000000000001 0 0  0.04 0 0  0.04100000000000001 0 0  0.042 0 0  0.043 0 0  0.044 0 0  0.045 0 0  0.04600000000000001 0 0  0.047 0 0  0.04800000000000001 0 0  0.049 0 0  0.05 0 0  0.051 0 0  0.052 0 0  0.05300000000000001 0 0  0.05400000000000001 0 0  0.055 0 0  0.05600000000000001 0 0  0.057 0 0  0.05800000000000001 0 0  0.059 0 0  0.06 0 0  0.06100000000000001 0 0  0.062 0 0  0.063 0 0  0.064 0 0  0.065 0 0  0.066 0 0  0.067 0 0  0.068 0 0  0.06900000000000001 0 0  0.07000000000000001 0 0  0.07100000000000001 0 0  0.07200000000000001 0 0  0.07300000000000001 0 0  0.07400000000000001 0 0  0.075 0 0  0.07600000000000001 0 0  0.077 0 0  0.07800000000000001 0 0  0.079 0 0  0.08 0 0  0.081 0 0  0.08200000000000002 0 0  0.083 0 0  0.08400000000000001 0 0  0.08500000000000001 0 0  0.08599999999999999 0 0  0.08700000000000001 0 0  0.08800000000000001 0 0  0.08900000000000001 0 0  0.09 0 0  0.091 0 0  0.09200000000000001 0 0  0.09300000000000001 0 0  0.094 0 0  0.095 0 0  0.09600000000000002 0 0  0.09700000000000002 0 0  0.098 0 0  0.099 0 0  0.1 0 0  </DataArray>
</Points>
<Cells>
<DataArray  type="UInt32"  Name="connectivity"  format="ascii">0 1  1 2  2 3  3 4  4 5  5 6  6 7  7 8  8 9  9 10  10 11  11 12  12 13  13 14  14 15  15 16  16 17  17 18  18 19  19 20  20 21  21 22  22 23  23 24  24 25  25 26  26 27  27 28  28 29  29 30  30 31  31 32  32 33  33 34  34 35  35 36  36 37  37 38  38 39  39 40  40 41  41 42  42 43  43 44  44 45  45 46  46 47  47 48  48 49  49 50  50 51  51 52  52 53  53 54  54 55  55 56  56 57  57 58  58 59  59 60  60 61  61 62  62 63  63 64  64 65  65 66  66 67  67 68  68 69  69 70  70 71  71 72  72 73  73 74  74 75  75 76  76 77  77 78  78 79  79 80  80 81  81 82  82 83  83 84  84 85  85 86  86 87  87 88  88 89  89 90  90 91  91 92  92 93  93 94  94 95  95 96  96 97  97 98  98 99  99 100  </DataArray>
<DataArray  type="UInt32"  Name="offsets"  format="ascii">2 4 6 8 10 12 14 16 18 20 22 24 26 28 30 32 34 36 38 40 42 44 46 48 50 52 54 56 58 60 62 64 66 68 70 72 74 76 78 80 82 84 86 88 90 92 94 96 98 100 102 104 106 108 110 112 114 116 118 120 122 124 126 128 130 132 134 136 138 140 142 144 146 148 150 152 154 156 158 160 162 164 166 168 170 172 174 176 178 180 182 184 186 188 190 192 194 196 198 200 </DataArray>
<DataArray  type="UInt8"  Name="types"  format="ascii">3 3 3 3 3 3 3 3 3 3 3 3 3 3 3 3 3 3 3 3 3 3 3 3 3 3 3 3 3 3 3 3 3 3 3 3 3 3 3 3 3 3 3 3 3 3 3 3 3 3 3 3 3 3 3 3 3 3 3 3 3 3 3 3 3 3 3 3 3 3 3 3 3 3 3 3 3 3 3 3 3 3 3 3 3 3 3 3 3 3 3 3 3 3 3 3 3 3 3 3 </DataArray>
</Cells>
<PointData  Scalars="f_14"> 
<DataArray  type="Float64"  Name="f_14"  format="ascii">1.5274803335726874e-04  1.5471696739347270e-04  1.6066262938700595e-04  1.7070209606096469e-04  1.8503215392498754e-04  2.0393179328469073e-04  2.2776571178356378e-04  2.5698883899341027e-04  2.9215189626984690e-04  3.3390800834674349e-04  3.8302038485891522e-04  4.4037109105707188e-04  5.0697092731471420e-04  5.8397043652604725e-04  6.7267205706146940e-04  7.7454343648979595e-04  8.9123191770477147e-04  1.0245802043232369e-03  1.1766432061756579e-03  1.3497060583167967e-03  1.5463032981853800e-03  1.7692391752889647e-03  2.0216090560503455e-03  2.3068218732078690e-03  2.6286235544157877e-03  2.9911213484656351e-03  3.3988089498923494e-03  3.8565923037124010e-03  4.3698159517665544e-03  4.9442897607380422e-03  5.5863158495508122e-03  6.3027155107179701e-03  7.1008558965373102e-03  7.9886762170835318e-03  8.9747131730232334e-03  1.0068125322711429e-02  1.1278716060180502e-02  1.2616954858897633e-02  1.4093996415964493e-02  1.5721697313206041e-02  1.7512629795803748e-02  1.9480092256245307e-02  2.1638116001865992e-02  2.4001467878624842e-02  2.6585648322456950e-02  2.9406884413025240e-02  3.2482117513381606e-02  3.5828985093324474e-02  3.9465796354453027e-02  4.3411501301343039e-02  4.7685652936135116e-02  5.2308362293263265e-02  5.7300246077131058e-02  6.2682366718218627e-02  6.8476164722248864e-02  7.4703383252410813e-02  8.1385984955881688e-02  8.8546061122536102e-02  9.6205733345207906e-02  1.0438704793646392e-01  1.1311186344577118e-01  1.2240173171224723e-01  1.3227777298088389e-01  1.4276054570310154e-01  1.5386991173454059e-01  1.6562489773288705e-01  1.7804355364493757e-01  1.9114280925372504e-01  2.0493832983198654e-01  2.1944437201623973e-01  2.3467364107492963e-01  2.5063715079327142e-01  2.6734408723537800e-01  2.8480167766994441e-01  3.0301506595823569e-01  3.2198719570156936e-01  3.4171870242927560e-01  3.6220781607679697e-01  3.8345027495691203e-01  4.0543925236494754e-01  4.2816529688153732e-01  4.5161628734428577e-01  4.7577740335334667e-01  5.0063111205619448e-01  5.2615717182489463e-01  5.5233265329621184e-01  5.7913197809247319e-01  6.0652697538084421e-01  6.3448695626243656e-01  6.6297880581243407e-01  6.9196709242019128e-01  7.2141419390626904e-01  7.5128043972373193e-01  7.8152426838599398e-01  8.1210239910520066e-01  8.4297001647571512e-01  8.7408096689873105e-01  9.0538796531828791e-01  9.3684281072770281e-01  9.6839660881023681e-01  1.0000000000000000e+00  </DataArray> 
</PointData> 
</Piece>
</UnstructuredGrid>
</VTKFile>