<?xml version="1.0"?>
<VTKFile type="UnstructuredGrid"  version="0.1"  >
<UnstructuredGrid>
<Piece  NumberOfPoints="101" NumberOfCells="100">
<Points>
<DataArray  type="Float64"  NumberOfComponents="3"  format="ascii">0 0 0  0.001 0 0  0.002 0 0  0.003 0 0  0.004 0 0  0.005 0 0  0.006000000000000001 0 0  0.007000000000000001 0 0  0.008 0 0  0.009000000000000001 0 0  0.01 0 0  0.011 0 0  0.012 0 0  0.013 0 0  0.014 0 0  0.015 0 0  0.016 0 0  0.017 0 0  0.018 0 0  0.019 0 0  0.02 0 0  0.021 0 0  0.022 0 0  0.023 0 0  0.024 0 0  0.025 0 0  0.026 0 0  0.027 0 0  0.028 0 0  0.029 0 0  0.03 0 0  0.031 0 0  0.032 0 0  0.033 0 0  0.034 0 0  0.035 0 0  0.036 0 0  0.03700000000000001 0 0  0.03800000000000001 0 0  0.03900000000000001 0 0  0.04 0 0  0.04100000000000001 0 0  0.042 0 0  0.043 0 0  0.044 0 0  0.045 0 0  0.04600000000000001 0 0  0.047 0 0  0.04800000000000001 0 0  0.049 0 0  0.05 0 0  0.051 0 0  0.052 0 0  0.05300000000000001 0 0  0.05400000000000001 0 0  0.055 0 0  0.05600000000000001 0 0  0.057 0 0  0.05800000000000001 0 0  0.059 0 0  0.06 0 0  0.06100000000000001 0 0  0.062 0 0  0.063 0 0  0.064 0 0  0.065 0 0  0.066 0 0  0.067 0 0  0.068 0 0  0.06900000000000001 0 0  0.07000000000000001 0 0  0.07100000000000001 0 0  0.07200000000000001 0 0  0.07300000000000001 0 0  0.07400000000000001 0 0  0.075 0 0  0.07600000000000001 0 0  0.077 0 0  0.07800000000000001 0 0  0.079 0 0  0.08 0 0  0.081 0 0  0.08200000000000002 0 0  0.083 0 0  0.08400000000000001 0 0  0.08500000000000001 0 0  0.08599999999999999 0 0  0.08700000000000001 0 0  0.08800000000000001 0 0  0.08900000000000001 0 0  0.09 0 0  0.091 0 0  0.09200000000000001 0 0  0.09300000000000001 0 0  0.094 0 0  0.095 0 0  0.09600000000000002 0 0  0.09700000000000002 0 0  0.098 0 0  0.099 0 0  0.1 0 0  </DataArray>
</Points>
<Cells>
<DataArray  type="UInt32"  Name="connectivity"  format="ascii">0 1  1 2  2 3  3 4  4 5  5 6  6 7  7 8  8 9  9 10  10 11  11 12  12 13  13 14  14 15  15 16  16 17  17 18  18 19  19 20  20 21  21 22  22 23  23 24  24 25  25 26  26 27  27 28  28 29  29 30  30 31  31 32  32 33  33 34  34 35  35 36  36 37  37 38  38 39  39 40  40 41  41 42  42 43  43 44  44 45  45 46  46 47  47 48  48 49  49 50  50 51  51 52  52 53  53 54  54 55  55 56  56 57  57 58  58 59  59 60  60 61  61 62  62 63  63 64  64 65  65 66  66 67  67 68  68 69  69 70  70 71  71 72  72 73  73 74  74 75  75 76  76 77  77 78  78 79  79 80  80 81  81 82  82 83  83 84  84 85  85 86  86 87  87 88  88 89  89 90  90 91  91 92  92 93  93 94  94 95  95 96  96 97  97 98  98 99  99 100  </DataArray>
<DataArray  type="UInt32"  Name="offsets"  format="ascii">2 4 6 8 10 12 14 16 18 20 22 24 26 28 30 32 34 36 38 40 42 44 46 48 50 52 54 56 58 60 62 64 66 68 70 72 74 76 78 80 82 84 86 88 90 92 94 96 98 100 102 104 106 108 110 112 114 116 118 120 122 124 126 128 130 132 134 136 138 140 142 144 146 148 150 152 154 156 158 160 162 164 166 168 170 172 174 176 178 180 182 184 186 188 190 192 194 196 198 200 </DataArray>
<DataArray  type="UInt8"  Name="types"  format="ascii">3 3 3 3 3 3 3 3 3 3 3 3 3 3 3 3 3 3 3 3 3 3 3 3 3 3 3 3 3 3 3 3 3 3 3 3 3 3 3 3 3 3 3 3 3 3 3 3 3 3 3 3 3 3 3 3 3 3 3 3 3 3 3 3 3 3 3 3 3 3 3 3 3 3 3 3 3 3 3 3 3 3 3 3 3 3 3 3 3 3 3 3 3 3 3 3 3 3 3 3 </DataArray>
</Cells>
<PointData  Scalars="f_14"> 
<DataArray  type="Float64"  Name="f_14"  format="ascii">7.5181287385441447e-13  8.5335282632779614e-13  1.1835020022536983e-12  1.8247676963638118e-12  2.9356435888119951e-12  4.7866950057504139e-12  7.8211951369318455e-12  1.2752656665003714e-11  2.0718715977182833e-11  3.3521394335940692e-11  5.3999524842253954e-11  8.6602613195249954e-11  1.3827022478661876e-10  2.1977237294608253e-10  3.4774176233940803e-10  5.4773866523503454e-10  8.5884852784662920e-10  1.3405418797999175e-09  2.0828545587404497e-09  3.2214133326471559e-09  4.9594919053239921e-09  7.6002084914257358e-09  1.1593267406290718e-08  1.7602435072496505e-08  2.6602399430682859e-08  4.0017018684140907e-08  5.9915515958573905e-08  8.9289300117055655e-08  1.3244027171401745e-07  1.9552231296040088e-07  2.8729191475935898e-07  4.2014248680068618e-07  6.1152094802526039e-07  8.8585604100366030e-07  1.2771670248907566e-06  1.8325707888928701e-06  2.6169670385374087e-06  3.7192572980999770e-06  5.2605464615829803e-06  7.4048880035439991e-06  1.0373268169047312e-05  1.4461682707402591e-05  2.0064343737618725e-05  2.7703265104864468e-05  3.8065711935250277e-05  5.2051262267794186e-05  7.0830511800300719e-05  9.5917750458045828e-05  1.2926024199807042e-04  1.7334703173780945e-04  2.3134047499698515e-04  3.0723389753335272e-04  4.0603894180617266e-04  5.3400618714131943e-04  6.9888252118204127e-04  9.1020844417084227e-04  1.1796579641567830e-03  1.5214229473859775e-03  1.9526426833833489e-03  2.4938779734546388e-03  3.1696272285570699e-03  4.0088798550538089e-03  5.0456996199041955e-03  6.3198277477052407e-03  7.8772922644366646e-03  9.7710066503679215e-03  1.2061337313131460e-02  1.4816615890152575e-02  1.8113569117807409e-02  2.2037636171196306e-02  2.6683141213229650e-02  3.2153287637219551e-02  3.8559940386215255e-02  4.6023164013792944e-02  5.4670487013400396e-02  6.4635867537191943e-02  7.6058342035446730e-02  8.9080346576785624e-02  1.0384571056386185e-01  1.2049733403886044e-01  1.3917457246666221e-01  1.6001036636972904e-01  1.8312816694584802e-01  2.0863872222179708e-01  2.3663680071709639e-01  2.6719794031803840e-01  3.0037531840748144e-01  3.3619684462376226e-01  3.7466257938706121e-01  4.1574257911979634e-01  4.5937526265297052e-01  5.0546638260350685e-01  5.5388867069443637e-01  6.0448220745886772e-01  6.5705554512408559e-01  7.1138758851337092e-01  7.6723021349093601e-01  8.2431157688590539e-01  8.8234004710094094e-01  9.4100866187516119e-01  1.0000000000000000e+00  </DataArray> 
</PointData> 
</Piece>
</UnstructuredGrid>
</VTKFile>