<?xml version="1.0"?>
<VTKFile type="UnstructuredGrid"  version="0.1"  >
<UnstructuredGrid>
<Piece  NumberOfPoints="101" NumberOfCells="100">
<Points>
<DataArray  type="Float64"  NumberOfComponents="3"  format="ascii">0 0 0  0.001 0 0  0.002 0 0  0.003 0 0  0.004 0 0  0.005 0 0  0.006000000000000001 0 0  0.007000000000000001 0 0  0.008 0 0  0.009000000000000001 0 0  0.01 0 0  0.011 0 0  0.012 0 0  0.013 0 0  0.014 0 0  0.015 0 0  0.016 0 0  0.017 0 0  0.018 0 0  0.019 0 0  0.02 0 0  0.021 0 0  0.022 0 0  0.023 0 0  0.024 0 0  0.025 0 0  0.026 0 0  0.027 0 0  0.028 0 0  0.029 0 0  0.03 0 0  0.031 0 0  0.032 0 0  0.033 0 0  0.034 0 0  0.035 0 0  0.036 0 0  0.03700000000000001 0 0  0.03800000000000001 0 0  0.03900000000000001 0 0  0.04 0 0  0.04100000000000001 0 0  0.042 0 0  0.043 0 0  0.044 0 0  0.045 0 0  0.04600000000000001 0 0  0.047 0 0  0.04800000000000001 0 0  0.049 0 0  0.05 0 0  0.051 0 0  0.052 0 0  0.05300000000000001 0 0  0.05400000000000001 0 0  0.055 0 0  0.05600000000000001 0 0  0.057 0 0  0.05800000000000001 0 0  0.059 0 0  0.06 0 0  0.06100000000000001 0 0  0.062 0 0  0.063 0 0  0.064 0 0  0.065 0 0  0.066 0 0  0.067 0 0  0.068 0 0  0.06900000000000001 0 0  0.07000000000000001 0 0  0.07100000000000001 0 0  0.07200000000000001 0 0  0.07300000000000001 0 0  0.07400000000000001 0 0  0.075 0 0  0.07600000000000001 0 0  0.077 0 0  0.07800000000000001 0 0  0.079 0 0  0.08 0 0  0.081 0 0  0.08200000000000002 0 0  0.083 0 0  0.08400000000000001 0 0  0.08500000000000001 0 0  0.08599999999999999 0 0  0.08700000000000001 0 0  0.08800000000000001 0 0  0.08900000000000001 0 0  0.09 0 0  0.091 0 0  0.09200000000000001 0 0  0.09300000000000001 0 0  0.094 0 0  0.095 0 0  0.09600000000000002 0 0  0.09700000000000002 0 0  0.098 0 0  0.099 0 0  0.1 0 0  </DataArray>
</Points>
<Cells>
<DataArray  type="UInt32"  Name="connectivity"  format="ascii">0 1  1 2  2 3  3 4  4 5  5 6  6 7  7 8  8 9  9 10  10 11  11 12  12 13  13 14  14 15  15 16  16 17  17 18  18 19  19 20  20 21  21 22  22 23  23 24  24 25  25 26  26 27  27 28  28 29  29 30  30 31  31 32  32 33  33 34  34 35  35 36  36 37  37 38  38 39  39 40  40 41  41 42  42 43  43 44  44 45  45 46  46 47  47 48  48 49  49 50  50 51  51 52  52 53  53 54  54 55  55 56  56 57  57 58  58 59  59 60  60 61  61 62  62 63  63 64  64 65  65 66  66 67  67 68  68 69  69 70  70 71  71 72  72 73  73 74  74 75  75 76  76 77  77 78  78 79  79 80  80 81  81 82  82 83  83 84  84 85  85 86  86 87  87 88  88 89  89 90  90 91  91 92  92 93  93 94  94 95  95 96  96 97  97 98  98 99  99 100  </DataArray>
<DataArray  type="UInt32"  Name="offsets"  format="ascii">2 4 6 8 10 12 14 16 18 20 22 24 26 28 30 32 34 36 38 40 42 44 46 48 50 52 54 56 58 60 62 64 66 68 70 72 74 76 78 80 82 84 86 88 90 92 94 96 98 100 102 104 106 108 110 112 114 116 118 120 122 124 126 128 130 132 134 136 138 140 142 144 146 148 150 152 154 156 158 160 162 164 166 168 170 172 174 176 178 180 182 184 186 188 190 192 194 196 198 200 </DataArray>
<DataArray  type="UInt8"  Name="types"  format="ascii">3 3 3 3 3 3 3 3 3 3 3 3 3 3 3 3 3 3 3 3 3 3 3 3 3 3 3 3 3 3 3 3 3 3 3 3 3 3 3 3 3 3 3 3 3 3 3 3 3 3 3 3 3 3 3 3 3 3 3 3 3 3 3 3 3 3 3 3 3 3 3 3 3 3 3 3 3 3 3 3 3 3 3 3 3 3 3 3 3 3 3 3 3 3 3 3 3 3 3 3 </DataArray>
</Cells>
<PointData  Scalars="f_14"> 
<DataArray  type="Float64"  Name="f_14"  format="ascii">8.6389952570091976e-04  8.7098196016154787e-04  8.9231154462507357e-04  9.2813560756533785e-04  9.7886797886466708e-04  1.0450914075802082e-03  1.1275609349786306e-03  1.2272082107853642e-03  1.3451467368462238e-03  1.4826780184291532e-03  1.6412985991598828e-03  1.8227079510496895e-03  2.0288171862035266e-03  2.2617585515655289e-03  2.5238956624459704e-03  2.8178344245657983e-03  3.1464345879466224e-03  3.5128218691684123e-03  3.9204005713263839e-03  4.3728666234640256e-03  4.8742209533725678e-03  5.4287830994701443e-03  6.0412049590586160e-03  6.7164845616656628e-03  7.4599797474876137e-03  8.2774216222388335e-03  9.1749276510809195e-03  1.0159014245853306e-02  1.1236608691670388e-02  1.2415060251210547e-02  1.3702150277829816e-02  1.5106101162123549e-02  1.6635583930874828e-02  1.8299724312614840e-02  2.0108107080424372e-02  2.2070778480276505e-02  2.4198246552303952e-02  2.6501479153013711e-02  2.8991899488803579e-02  3.1681378975288270e-02  3.4582227243035689e-02  3.7707179118451506e-02  4.1069378418820898e-02  4.4682358412995657e-02  4.8560018813946629e-02  5.2716599186424122e-02  5.7166648672278976e-02  6.1924991957572777e-02  6.7006691429403936e-02  7.2427005496302418e-02  7.8201343074005822e-02  8.4345214268262234e-02  9.0874177317853438e-02  9.7803781894074029e-02  1.0514950888721068e-01  1.1292670684586713e-01  1.2115052527098076e-01  1.2983584500274770e-01  1.3899720597507742e-01  1.4864873264824841e-01  1.5880405746576956e-01  1.6947624271564274e-01  1.8067770120888035e-01  1.9242011621883326e-01  2.0471436115320782e-01  2.1757041945620878e-01  2.3099730526061210e-01  2.4500298532838830e-01  2.5959430283339469e-01  2.7477690355030165e-01  2.9055516502002449e-01  3.0693212926322988e-01  3.2390943960976748e-01  3.4148728220297586e-01  3.5966433272360482e-01  3.7843770885854078e-01  3.9780292901460712e-01  4.1775387774749190e-01  4.3828277834049578e-01  4.5938017292740257e-01  4.8103491050870689e-01  5.0323414316089143e-01  5.2596333068489232e-01  5.4920625388268707e-01  5.7294503659061014e-01  5.9716017653503184e-01  6.2183058501104937e-01  6.4693363531838877e-01  6.7244521982146988e-01  6.9833981543321277e-01  7.2459055725528554e-01  7.5116932004186465e-01  7.7804680709019813e-01  8.0519264610007080e-01  8.3257549148625398e-01  8.6016313257384192e-01  8.8792260705659454e-01  9.1582031905358829e-01  9.4382216106008043e-01  9.7189363905497339e-01  1.0000000000000000e+00  </DataArray> 
</PointData> 
</Piece>
</UnstructuredGrid>
</VTKFile>