<?xml version="1.0"?>
<VTKFile type="UnstructuredGrid"  version="0.1"  >
<UnstructuredGrid>
<Piece  NumberOfPoints="101" NumberOfCells="100">
<Points>
<DataArray  type="Float64"  NumberOfComponents="3"  format="ascii">0 0 0  0.001 0 0  0.002 0 0  0.003 0 0  0.004 0 0  0.005 0 0  0.006000000000000001 0 0  0.007000000000000001 0 0  0.008 0 0  0.009000000000000001 0 0  0.01 0 0  0.011 0 0  0.012 0 0  0.013 0 0  0.014 0 0  0.015 0 0  0.016 0 0  0.017 0 0  0.018 0 0  0.019 0 0  0.02 0 0  0.021 0 0  0.022 0 0  0.023 0 0  0.024 0 0  0.025 0 0  0.026 0 0  0.027 0 0  0.028 0 0  0.029 0 0  0.03 0 0  0.031 0 0  0.032 0 0  0.033 0 0  0.034 0 0  0.035 0 0  0.036 0 0  0.03700000000000001 0 0  0.03800000000000001 0 0  0.03900000000000001 0 0  0.04 0 0  0.04100000000000001 0 0  0.042 0 0  0.043 0 0  0.044 0 0  0.045 0 0  0.04600000000000001 0 0  0.047 0 0  0.04800000000000001 0 0  0.049 0 0  0.05 0 0  0.051 0 0  0.052 0 0  0.05300000000000001 0 0  0.05400000000000001 0 0  0.055 0 0  0.05600000000000001 0 0  0.057 0 0  0.05800000000000001 0 0  0.059 0 0  0.06 0 0  0.06100000000000001 0 0  0.062 0 0  0.063 0 0  0.064 0 0  0.065 0 0  0.066 0 0  0.067 0 0  0.068 0 0  0.06900000000000001 0 0  0.07000000000000001 0 0  0.07100000000000001 0 0  0.07200000000000001 0 0  0.07300000000000001 0 0  0.07400000000000001 0 0  0.075 0 0  0.07600000000000001 0 0  0.077 0 0  0.07800000000000001 0 0  0.079 0 0  0.08 0 0  0.081 0 0  0.08200000000000002 0 0  0.083 0 0  0.08400000000000001 0 0  0.08500000000000001 0 0  0.08599999999999999 0 0  0.08700000000000001 0 0  0.08800000000000001 0 0  0.08900000000000001 0 0  0.09 0 0  0.091 0 0  0.09200000000000001 0 0  0.09300000000000001 0 0  0.094 0 0  0.095 0 0  0.09600000000000002 0 0  0.09700000000000002 0 0  0.098 0 0  0.099 0 0  0.1 0 0  </DataArray>
</Points>
<Cells>
<DataArray  type="UInt32"  Name="connectivity"  format="ascii">0 1  1 2  2 3  3 4  4 5  5 6  6 7  7 8  8 9  9 10  10 11  11 12  12 13  13 14  14 15  15 16  16 17  17 18  18 19  19 20  20 21  21 22  22 23  23 24  24 25  25 26  26 27  27 28  28 29  29 30  30 31  31 32  32 33  33 34  34 35  35 36  36 37  37 38  38 39  39 40  40 41  41 42  42 43  43 44  44 45  45 46  46 47  47 48  48 49  49 50  50 51  51 52  52 53  53 54  54 55  55 56  56 57  57 58  58 59  59 60  60 61  61 62  62 63  63 64  64 65  65 66  66 67  67 68  68 69  69 70  70 71  71 72  72 73  73 74  74 75  75 76  76 77  77 78  78 79  79 80  80 81  81 82  82 83  83 84  84 85  85 86  86 87  87 88  88 89  89 90  90 91  91 92  92 93  93 94  94 95  95 96  96 97  97 98  98 99  99 100  </DataArray>
<DataArray  type="UInt32"  Name="offsets"  format="ascii">2 4 6 8 10 12 14 16 18 20 22 24 26 28 30 32 34 36 38 40 42 44 46 48 50 52 54 56 58 60 62 64 66 68 70 72 74 76 78 80 82 84 86 88 90 92 94 96 98 100 102 104 106 108 110 112 114 116 118 120 122 124 126 128 130 132 134 136 138 140 142 144 146 148 150 152 154 156 158 160 162 164 166 168 170 172 174 176 178 180 182 184 186 188 190 192 194 196 198 200 </DataArray>
<DataArray  type="UInt8"  Name="types"  format="ascii">3 3 3 3 3 3 3 3 3 3 3 3 3 3 3 3 3 3 3 3 3 3 3 3 3 3 3 3 3 3 3 3 3 3 3 3 3 3 3 3 3 3 3 3 3 3 3 3 3 3 3 3 3 3 3 3 3 3 3 3 3 3 3 3 3 3 3 3 3 3 3 3 3 3 3 3 3 3 3 3 3 3 3 3 3 3 3 3 3 3 3 3 3 3 3 3 3 3 3 3 </DataArray>
</Cells>
<PointData  Scalars="f_14"> 
<DataArray  type="Float64"  Name="f_14"  format="ascii">6.2957911458100035e-05  6.3947322687997162e-05  6.6940034250731597e-05  7.2009899802351980e-05  7.9281412058699284e-05  8.8931818770484402e-05  1.0119410702790974e-04  1.1636087749774797e-04  1.3478913588187890e-04  1.5690603419863544e-04  1.8321559933413324e-04  2.1430649059193474e-04  2.5086083158203082e-04  2.9366416462423488e-04  3.4361657778068575e-04  4.0174505555553143e-04  4.6921710408024775e-04  5.4735570010960258e-04  6.3765561025251594e-04  7.4180112241959122e-04  8.6168522535179913e-04  9.9943026417346234e-04  1.1574100900649134e-03  1.3382737102638784e-03  1.5449704305815250e-03  1.7807764663790703e-03  2.0493229794359647e-03  2.3546254773199288e-03  2.7011144887430327e-03  3.0936674029931471e-03  3.5376413339440419e-03  4.0389068394928555e-03  4.6038822957227051e-03  5.2395686918663862e-03  5.9535845775354791e-03  6.7542008580183189e-03  7.6503750971399871e-03  8.6517849506787103e-03  9.7688603171661240e-03  1.1012813757642148e-02  1.2395668702221200e-02  1.3930284929836971e-02  1.5630380778992047e-02  1.7510551522506374e-02  1.9586283318915543e-02  2.1873962138115915e-02  2.4390877049881660e-02  2.7155217261770843e-02  3.0186062298446937e-02  3.3503364728266448e-02  3.7127924865768387e-02  4.1081356910993148e-02  4.5386046028818912e-02  5.0065095924058736e-02  5.5142266531112587e-02  6.0641901510554368e-02  6.6588845329031476e-02  7.3008349792952801e-02  7.9925970010147424e-02  8.7367449866282462e-02  9.5358597223449415e-02  1.0392514917584142e-01  1.1309262783056272e-01  1.2288618721883024e-01  1.3333045208247110e-01  1.4444934942086310e-01  1.5626593382231274e-01  1.6880220773923899e-01  1.8207893799624153e-01  1.9611546994195342e-01  2.1092954076726012e-01  2.2653709361178712e-01  2.4295209416535909e-01  2.6018635153936376e-01  2.7824934523271194e-01  2.9714806004666755e-01  3.1688683081075375e-01  3.3746719876701248e-01  3.5888778142124772e-01  3.8114415760689219e-01  4.0422876941971286e-01  4.2813084256979139e-01  4.5283632656178296e-01  4.7832785595626925e-01  5.0458473378554447e-01  5.3158293799813161e-01  5.5929515158994203e-01  5.8769081684870816e-01  6.1673621389498690e-01  6.4639456345078816e-01  6.7662615350893485e-01  7.0738848931625176e-01  7.3863646582510623e-01  7.7032256151443101e-01  8.0239705223677249e-01  8.3480824351573502e-01  8.6750271950189672e-01  9.0042560659810644e-01  9.3352084959003501e-01  9.6673149796762492e-01  1.0000000000000000e+00  </DataArray> 
</PointData> 
</Piece>
</UnstructuredGrid>
</VTKFile>