<?xml version="1.0"?>
<VTKFile type="UnstructuredGrid"  version="0.1"  >
<UnstructuredGrid>
<Piece  NumberOfPoints="101" NumberOfCells="100">
<Points>
<DataArray  type="Float64"  NumberOfComponents="3"  format="ascii">0 0 0  0.001 0 0  0.002 0 0  0.003 0 0  0.004 0 0  0.005 0 0  0.006000000000000001 0 0  0.007000000000000001 0 0  0.008 0 0  0.009000000000000001 0 0  0.01 0 0  0.011 0 0  0.012 0 0  0.013 0 0  0.014 0 0  0.015 0 0  0.016 0 0  0.017 0 0  0.018 0 0  0.019 0 0  0.02 0 0  0.021 0 0  0.022 0 0  0.023 0 0  0.024 0 0  0.025 0 0  0.026 0 0  0.027 0 0  0.028 0 0  0.029 0 0  0.03 0 0  0.031 0 0  0.032 0 0  0.033 0 0  0.034 0 0  0.035 0 0  0.036 0 0  0.03700000000000001 0 0  0.03800000000000001 0 0  0.03900000000000001 0 0  0.04 0 0  0.04100000000000001 0 0  0.042 0 0  0.043 0 0  0.044 0 0  0.045 0 0  0.04600000000000001 0 0  0.047 0 0  0.04800000000000001 0 0  0.049 0 0  0.05 0 0  0.051 0 0  0.052 0 0  0.05300000000000001 0 0  0.05400000000000001 0 0  0.055 0 0  0.05600000000000001 0 0  0.057 0 0  0.05800000000000001 0 0  0.059 0 0  0.06 0 0  0.06100000000000001 0 0  0.062 0 0  0.063 0 0  0.064 0 0  0.065 0 0  0.066 0 0  0.067 0 0  0.068 0 0  0.06900000000000001 0 0  0.07000000000000001 0 0  0.07100000000000001 0 0  0.07200000000000001 0 0  0.07300000000000001 0 0  0.07400000000000001 0 0  0.075 0 0  0.07600000000000001 0 0  0.077 0 0  0.07800000000000001 0 0  0.079 0 0  0.08 0 0  0.081 0 0  0.08200000000000002 0 0  0.083 0 0  0.08400000000000001 0 0  0.08500000000000001 0 0  0.08599999999999999 0 0  0.08700000000000001 0 0  0.08800000000000001 0 0  0.08900000000000001 0 0  0.09 0 0  0.091 0 0  0.09200000000000001 0 0  0.09300000000000001 0 0  0.094 0 0  0.095 0 0  0.09600000000000002 0 0  0.09700000000000002 0 0  0.098 0 0  0.099 0 0  0.1 0 0  </DataArray>
</Points>
<Cells>
<DataArray  type="UInt32"  Name="connectivity"  format="ascii">0 1  1 2  2 3  3 4  4 5  5 6  6 7  7 8  8 9  9 10  10 11  11 12  12 13  13 14  14 15  15 16  16 17  17 18  18 19  19 20  20 21  21 22  22 23  23 24  24 25  25 26  26 27  27 28  28 29  29 30  30 31  31 32  32 33  33 34  34 35  35 36  36 37  37 38  38 39  39 40  40 41  41 42  42 43  43 44  44 45  45 46  46 47  47 48  48 49  49 50  50 51  51 52  52 53  53 54  54 55  55 56  56 57  57 58  58 59  59 60  60 61  61 62  62 63  63 64  64 65  65 66  66 67  67 68  68 69  69 70  70 71  71 72  72 73  73 74  74 75  75 76  76 77  77 78  78 79  79 80  80 81  81 82  82 83  83 84  84 85  85 86  86 87  87 88  88 89  89 90  90 91  91 92  92 93  93 94  94 95  95 96  96 97  97 98  98 99  99 100  </DataArray>
<DataArray  type="UInt32"  Name="offsets"  format="ascii">2 4 6 8 10 12 14 16 18 20 22 24 26 28 30 32 34 36 38 40 42 44 46 48 50 52 54 56 58 60 62 64 66 68 70 72 74 76 78 80 82 84 86 88 90 92 94 96 98 100 102 104 106 108 110 112 114 116 118 120 122 124 126 128 130 132 134 136 138 140 142 144 146 148 150 152 154 156 158 160 162 164 166 168 170 172 174 176 178 180 182 184 186 188 190 192 194 196 198 200 </DataArray>
<DataArray  type="UInt8"  Name="types"  format="ascii">3 3 3 3 3 3 3 3 3 3 3 3 3 3 3 3 3 3 3 3 3 3 3 3 3 3 3 3 3 3 3 3 3 3 3 3 3 3 3 3 3 3 3 3 3 3 3 3 3 3 3 3 3 3 3 3 3 3 3 3 3 3 3 3 3 3 3 3 3 3 3 3 3 3 3 3 3 3 3 3 3 3 3 3 3 3 3 3 3 3 3 3 3 3 3 3 3 3 3 3 </DataArray>
</Cells>
<PointData  Scalars="f_14"> 
<DataArray  type="Float64"  Name="f_14"  format="ascii">2.1186120390012774e-09  2.2654502858352926e-09  2.7242774098003499e-09  3.5520440870080967e-09  4.8505691588962984e-09  6.7775681744504928e-09  9.5635000583656373e-09  1.3535764689841321e-08  1.9152409886431983e-08  2.7048286449693991e-08  3.8097574422482251e-08  5.3497852305168924e-08  7.4882465620037793e-08  1.0446995846511066e-07  1.4526186538269391e-07  2.0130334482920266e-07  2.7802511647474272e-07  3.8269011484534665e-07  5.2497439208694975e-07  7.1771932403501182e-07  9.7790135959761091e-07  1.3278766997583737e-06  1.7969717274171787e-06  2.4235060905362286e-06  3.2573544511275581e-06  4.3631754509850211e-06  5.8244628168821481e-06  7.7486041284912642e-06  1.0273167966441474e-05  1.3573680254299242e-05  1.7873195827039629e-05  2.3454021693208817e-05  3.0672004030167788e-05  3.9973851360308422e-05  5.1918031019832929e-05  6.7199844028191378e-05  8.6681353467709142e-05  1.1142691169148104e-04  1.4274509976391252e-04  1.8223795558683852e-04  2.3185842163037657e-04  2.9397698487233472e-04  3.7145850559701030e-04  4.6775023262860389e-04  5.8698197432682482e-04  7.3407933074704206e-04  9.1489078595966445e-04  1.1363293037403163e-03  1.4065288579709605e-03  1.7350160549240196e-03  2.1328966628149765e-03  2.6130564505957589e-03  3.1903752506981095e-03  3.8819525993744144e-03  4.7073426762494191e-03  5.6887955677688987e-03  6.8515011271757988e-03  8.2238309102661781e-03  9.8375728495669369e-03  1.1728152512202380e-02  1.3934833995346790e-02  1.6500892778559033e-02  1.9473752208706414e-02  2.2905074777532008e-02  2.6850799002771073e-02  3.1371112579993983e-02  3.6530352571763451e-02  4.2396823778050395e-02  4.9042527117159382e-02  5.6542790862932450e-02  6.4975798946292976e-02  7.4422012241294563e-02  8.4963480809616673e-02  9.6683047451283394e-02  1.0966344556727824e-01  1.2398629723094533e-01  1.3973102042435134e-01  1.5697365754426201e-01  1.7578564042922870e-01  1.9623251020388766e-01  2.1837261307180669e-01  2.4225579570364777e-01  2.6792212595383480e-01  2.9540066619234101e-01  3.2470832746483652e-01  3.5584883291492286e-01  3.8881181835618445e-01  4.2357209653153149e-01  4.6008910943093140e-01  4.9830659007228228e-01  5.3815245142907309e-01  5.7953891578717998e-01  6.2236289283384205e-01  6.6650660935220885e-01  7.1183848766394153e-01  7.5821426409595472e-01  8.0547833292223303e-01  8.5346529562885176e-01  9.0200169014859000e-01  9.5090787008022692e-01  1.0000000000000000e+00  </DataArray> 
</PointData> 
</Piece>
</UnstructuredGrid>
</VTKFile>