<?xml version="1.0"?>
<VTKFile type="UnstructuredGrid"  version="0.1"  >
<UnstructuredGrid>
<Piece  NumberOfPoints="101" NumberOfCells="100">
<Points>
<DataArray  type="Float64"  NumberOfComponents="3"  format="ascii">0 0 0  0.001 0 0  0.002 0 0  0.003 0 0  0.004 0 0  0.005 0 0  0.006000000000000001 0 0  0.007000000000000001 0 0  0.008 0 0  0.009000000000000001 0 0  0.01 0 0  0.011 0 0  0.012 0 0  0.013 0 0  0.014 0 0  0.015 0 0  0.016 0 0  0.017 0 0  0.018 0 0  0.019 0 0  0.02 0 0  0.021 0 0  0.022 0 0  0.023 0 0  0.024 0 0  0.025 0 0  0.026 0 0  0.027 0 0  0.028 0 0  0.029 0 0  0.03 0 0  0.031 0 0  0.032 0 0  0.033 0 0  0.034 0 0  0.035 0 0  0.036 0 0  0.03700000000000001 0 0  0.03800000000000001 0 0  0.03900000000000001 0 0  0.04 0 0  0.04100000000000001 0 0  0.042 0 0  0.043 0 0  0.044 0 0  0.045 0 0  0.04600000000000001 0 0  0.047 0 0  0.04800000000000001 0 0  0.049 0 0  0.05 0 0  0.051 0 0  0.052 0 0  0.05300000000000001 0 0  0.05400000000000001 0 0  0.055 0 0  0.05600000000000001 0 0  0.057 0 0  0.05800000000000001 0 0  0.059 0 0  0.06 0 0  0.06100000000000001 0 0  0.062 0 0  0.063 0 0  0.064 0 0  0.065 0 0  0.066 0 0  0.067 0 0  0.068 0 0  0.06900000000000001 0 0  0.07000000000000001 0 0  0.07100000000000001 0 0  0.07200000000000001 0 0  0.07300000000000001 0 0  0.07400000000000001 0 0  0.075 0 0  0.07600000000000001 0 0  0.077 0 0  0.07800000000000001 0 0  0.079 0 0  0.08 0 0  0.081 0 0  0.08200000000000002 0 0  0.083 0 0  0.08400000000000001 0 0  0.08500000000000001 0 0  0.08599999999999999 0 0  0.08700000000000001 0 0  0.08800000000000001 0 0  0.08900000000000001 0 0  0.09 0 0  0.091 0 0  0.09200000000000001 0 0  0.09300000000000001 0 0  0.094 0 0  0.095 0 0  0.09600000000000002 0 0  0.09700000000000002 0 0  0.098 0 0  0.099 0 0  0.1 0 0  </DataArray>
</Points>
<Cells>
<DataArray  type="UInt32"  Name="connectivity"  format="ascii">0 1  1 2  2 3  3 4  4 5  5 6  6 7  7 8  8 9  9 10  10 11  11 12  12 13  13 14  14 15  15 16  16 17  17 18  18 19  19 20  20 21  21 22  22 23  23 24  24 25  25 26  26 27  27 28  28 29  29 30  30 31  31 32  32 33  33 34  34 35  35 36  36 37  37 38  38 39  39 40  40 41  41 42  42 43  43 44  44 45  45 46  46 47  47 48  48 49  49 50  50 51  51 52  52 53  53 54  54 55  55 56  56 57  57 58  58 59  59 60  60 61  61 62  62 63  63 64  64 65  65 66  66 67  67 68  68 69  69 70  70 71  71 72  72 73  73 74  74 75  75 76  76 77  77 78  78 79  79 80  80 81  81 82  82 83  83 84  84 85  85 86  86 87  87 88  88 89  89 90  90 91  91 92  92 93  93 94  94 95  95 96  96 97  97 98  98 99  99 100  </DataArray>
<DataArray  type="UInt32"  Name="offsets"  format="ascii">2 4 6 8 10 12 14 16 18 20 22 24 26 28 30 32 34 36 38 40 42 44 46 48 50 52 54 56 58 60 62 64 66 68 70 72 74 76 78 80 82 84 86 88 90 92 94 96 98 100 102 104 106 108 110 112 114 116 118 120 122 124 126 128 130 132 134 136 138 140 142 144 146 148 150 152 154 156 158 160 162 164 166 168 170 172 174 176 178 180 182 184 186 188 190 192 194 196 198 200 </DataArray>
<DataArray  type="UInt8"  Name="types"  format="ascii">3 3 3 3 3 3 3 3 3 3 3 3 3 3 3 3 3 3 3 3 3 3 3 3 3 3 3 3 3 3 3 3 3 3 3 3 3 3 3 3 3 3 3 3 3 3 3 3 3 3 3 3 3 3 3 3 3 3 3 3 3 3 3 3 3 3 3 3 3 3 3 3 3 3 3 3 3 3 3 3 3 3 3 3 3 3 3 3 3 3 3 3 3 3 3 3 3 3 3 3 </DataArray>
</Cells>
<PointData  Scalars="f_14"> 
<DataArray  type="Float64"  Name="f_14"  format="ascii">4.5967666277083737e-07  4.7650447543182184e-07  5.2804774452064547e-07  6.1754095666578074e-07  7.5056040073444627e-07  9.3531002057680275e-07  1.1830370690774682e-06  1.5085934627750792e-06  1.9311639059254285e-06  2.4751874918749326e-06  3.1715057005041629e-06  4.0587765935836871e-06  5.1852026617410938e-06  6.6106282882617755e-06  8.4090722487564468e-06  1.0671771132934160e-05  1.3510821110972363e-05  1.7063518107779186e-05  2.1497510203704603e-05  2.7016890928082120e-05  3.3869377991769006e-05  4.2354738809745907e-05  5.2834641733684106e-05  6.5744130023362532e-05  8.1604933939927253e-05  1.0104085456879455e-04  1.2479547061385919e-04  1.5375243589193889e-04  1.8895864994207317e-04  2.3165059629067164e-04  2.8328415161930855e-04  3.4556817340472958e-04  4.2050217248291310e-04  5.1041836928900314e-04  6.1802841703206054e-04  7.4647505051996367e-04  8.9938888447733414e-04  1.0809505387334979e-03  1.2959582083871038e-03  1.5499007238678677e-03  1.8490360577548882e-03  2.2004751315256527e-03  2.6122706556221684e-03  3.0935106001891378e-03  3.6544157418233365e-03  4.3064405644010527e-03  5.0623766107765608e-03  5.9364571887076164e-03  6.9444621312336370e-03  8.1038211020383992e-03  9.4337137238875990e-03  1.0955164597533434e-02  1.2691131074678293e-02  1.4666581457447975e-02  1.6908561124642646e-02  1.9446243938544615e-02  2.2310966172304145e-02  2.5536240124079020e-02  2.9157744557312317e-02  3.3213289133674918e-02  3.7742750092683235e-02  4.2787974585482780e-02  4.8392651294453352e-02  5.4602145268565237e-02  6.1463295278734273e-02  6.9024172448002546e-02  7.7333799436475392e-02  8.6441830056759303e-02  9.6398189856117047e-02  1.0725267891835599e-01  1.1905453890097757e-01  1.3185198711850779e-01  1.4569172129630847e-01  1.6061839943380229e-01  1.7667410001366454e-01  1.9389776855472082e-01  2.1232465721092109e-01  2.3198576474649840e-01  2.5290728474834129e-01  2.7511007035162666e-01  2.9860912403650358e-01  3.2341312118666216e-01  3.4952397607247182e-01  3.7693645872260478e-01  4.0563787077309710e-01  4.3560778783005472e-01  4.6681787515456052e-01  4.9923178258305656e-01  5.3280512354547904e-01  5.6748554185304390e-01  6.0321286861820134e-01  6.3991937026530610e-01  6.7753008711936968e-01  7.1596326055214154e-01  7.5513084515163742e-01  7.9493910089623909e-01  8.3528925889085393e-01  8.7607825289290642e-01  9.1719950765096947e-01  9.5854377402705659e-01  1.0000000000000000e+00  </DataArray> 
</PointData> 
</Piece>
</UnstructuredGrid>
</VTKFile>