<?xml version="1.0"?>
<VTKFile type="UnstructuredGrid"  version="0.1"  >
<UnstructuredGrid>
<Piece  NumberOfPoints="101" NumberOfCells="100">
<Points>
<DataArray  type="Float64"  NumberOfComponents="3"  format="ascii">0 0 0  0.001 0 0  0.002 0 0  0.003 0 0  0.004 0 0  0.005 0 0  0.006000000000000001 0 0  0.007000000000000001 0 0  0.008 0 0  0.009000000000000001 0 0  0.01 0 0  0.011 0 0  0.012 0 0  0.013 0 0  0.014 0 0  0.015 0 0  0.016 0 0  0.017 0 0  0.018 0 0  0.019 0 0  0.02 0 0  0.021 0 0  0.022 0 0  0.023 0 0  0.024 0 0  0.025 0 0  0.026 0 0  0.027 0 0  0.028 0 0  0.029 0 0  0.03 0 0  0.031 0 0  0.032 0 0  0.033 0 0  0.034 0 0  0.035 0 0  0.036 0 0  0.03700000000000001 0 0  0.03800000000000001 0 0  0.03900000000000001 0 0  0.04 0 0  0.04100000000000001 0 0  0.042 0 0  0.043 0 0  0.044 0 0  0.045 0 0  0.04600000000000001 0 0  0.047 0 0  0.04800000000000001 0 0  0.049 0 0  0.05 0 0  0.051 0 0  0.052 0 0  0.05300000000000001 0 0  0.05400000000000001 0 0  0.055 0 0  0.05600000000000001 0 0  0.057 0 0  0.05800000000000001 0 0  0.059 0 0  0.06 0 0  0.06100000000000001 0 0  0.062 0 0  0.063 0 0  0.064 0 0  0.065 0 0  0.066 0 0  0.067 0 0  0.068 0 0  0.06900000000000001 0 0  0.07000000000000001 0 0  0.07100000000000001 0 0  0.07200000000000001 0 0  0.07300000000000001 0 0  0.07400000000000001 0 0  0.075 0 0  0.07600000000000001 0 0  0.077 0 0  0.07800000000000001 0 0  0.079 0 0  0.08 0 0  0.081 0 0  0.08200000000000002 0 0  0.083 0 0  0.08400000000000001 0 0  0.08500000000000001 0 0  0.08599999999999999 0 0  0.08700000000000001 0 0  0.08800000000000001 0 0  0.08900000000000001 0 0  0.09 0 0  0.091 0 0  0.09200000000000001 0 0  0.09300000000000001 0 0  0.094 0 0  0.095 0 0  0.09600000000000002 0 0  0.09700000000000002 0 0  0.098 0 0  0.099 0 0  0.1 0 0  </DataArray>
</Points>
<Cells>
<DataArray  type="UInt32"  Name="connectivity"  format="ascii">0 1  1 2  2 3  3 4  4 5  5 6  6 7  7 8  8 9  9 10  10 11  11 12  12 13  13 14  14 15  15 16  16 17  17 18  18 19  19 20  20 21  21 22  22 23  23 24  24 25  25 26  26 27  27 28  28 29  29 30  30 31  31 32  32 33  33 34  34 35  35 36  36 37  37 38  38 39  39 40  40 41  41 42  42 43  43 44  44 45  45 46  46 47  47 48  48 49  49 50  50 51  51 52  52 53  53 54  54 55  55 56  56 57  57 58  58 59  59 60  60 61  61 62  62 63  63 64  64 65  65 66  66 67  67 68  68 69  69 70  70 71  71 72  72 73  73 74  74 75  75 76  76 77  77 78  78 79  79 80  80 81  81 82  82 83  83 84  84 85  85 86  86 87  87 88  88 89  89 90  90 91  91 92  92 93  93 94  94 95  95 96  96 97  97 98  98 99  99 100  </DataArray>
<DataArray  type="UInt32"  Name="offsets"  format="ascii">2 4 6 8 10 12 14 16 18 20 22 24 26 28 30 32 34 36 38 40 42 44 46 48 50 52 54 56 58 60 62 64 66 68 70 72 74 76 78 80 82 84 86 88 90 92 94 96 98 100 102 104 106 108 110 112 114 116 118 120 122 124 126 128 130 132 134 136 138 140 142 144 146 148 150 152 154 156 158 160 162 164 166 168 170 172 174 176 178 180 182 184 186 188 190 192 194 196 198 200 </DataArray>
<DataArray  type="UInt8"  Name="types"  format="ascii">3 3 3 3 3 3 3 3 3 3 3 3 3 3 3 3 3 3 3 3 3 3 3 3 3 3 3 3 3 3 3 3 3 3 3 3 3 3 3 3 3 3 3 3 3 3 3 3 3 3 3 3 3 3 3 3 3 3 3 3 3 3 3 3 3 3 3 3 3 3 3 3 3 3 3 3 3 3 3 3 3 3 3 3 3 3 3 3 3 3 3 3 3 3 3 3 3 3 3 3 </DataArray>
</Cells>
<PointData  Scalars="f_14"> 
<DataArray  type="Float64"  Name="f_14"  format="ascii">1.0823029162760612e-05  1.1063104672629900e-05  1.1792067938537747e-05  1.3036369841876309e-05  1.4840901519829115e-05  1.7270218199749941e-05  2.0410281251123386e-05  2.4370747180290701e-05  2.9287840547767286e-05  3.5327856057891426e-05  4.2691343336620238e-05  5.1618036143043073e-05  6.2392595905460456e-05  7.5351247467659419e-05  9.0889392689385163e-05  1.0947029495928179e-04  1.3163493461771530e-04  1.5801314159521752e-04  1.8933611706860364e-04  2.2645046041398024e-04  2.7033382096098907e-04  3.2211229576791341e-04  3.8307969456156146e-04  4.5471879081715227e-04  5.3872467337228770e-04  6.3703030564306296e-04  7.5183438909950950e-04  8.8563161382117879e-04  1.0412453613582032e-03  1.2218629034511255e-03  1.4310731141231054e-03  1.6729066819972075e-03  1.9518787742055499e-03  2.2730340628050985e-03  2.6419939791317792e-03  3.0650060110355235e-03  3.5489948025725399e-03  4.1016147557332875e-03  4.7313037695306554e-03  5.4473376837786353e-03  6.2598849238235622e-03  7.1800607691710734e-03  8.2199805943669584e-03  9.3928113557872443e-03  1.0712820524477432e-02  1.2195421594314183e-02  1.3857215228143266e-02  1.5716025043898553e-02  1.7790926989855717e-02  2.0102271215016090e-02  2.2671695309097298e-02  2.5522127768666480e-02  2.8677780543501934e-02  3.2164129532126218e-02  3.6007881929309364e-02  4.0236929382693368e-02  4.4880285991800592e-02  4.9968010281524221e-02  5.5531110404383285e-02  6.1601431971576463e-02  6.8211528081985412e-02  7.5394511310050288e-02  8.3183887626680705e-02  9.1613372460326067e-02  1.0071668935573351e-01  1.1052735195295564e-01  1.2107843028546859e-01  1.3240230267998435e-01  1.4453039482737076e-01  1.5749290787931389e-01  1.7131853770392555e-01  1.8603418770011054e-01  2.0166467781971970e-01  2.1823245267282057e-01  2.3575729178939459e-01  2.5425602527517177e-01  2.7374225822522258e-01  2.9422610734184157e-01  3.1571395323928808e-01  3.3820821190379191e-01  3.6170712871052191e-01  3.8620459827826759e-01  4.1169001326689814e-01  4.3814814499255855e-01  4.6555905845257300e-01  4.9389806401865433e-01  5.2313570767693518e-01  5.5323780127114741e-01  5.8416549374664273e-01  6.1587538390442509e-01  6.4831967466318430e-01  6.8144636830156546e-01  7.1519950162095336e-01  7.4951941943979694e-01  7.8434308431287836e-01  8.1960441987193144e-01  8.5523468471638753e-01  8.9116287335314659e-01  9.2731614029986920e-01  9.6362024313443639e-01  1.0000000000000000e+00  </DataArray> 
</PointData> 
</Piece>
</UnstructuredGrid>
</VTKFile>