<?xml version="1.0"?>
<VTKFile type="UnstructuredGrid"  version="0.1"  >
<UnstructuredGrid>
<Piece  NumberOfPoints="101" NumberOfCells="100">
<Points>
<DataArray  type="Float64"  NumberOfComponents="3"  format="ascii">0 0 0  0.001 0 0  0.002 0 0  0.003 0 0  0.004 0 0  0.005 0 0  0.006000000000000001 0 0  0.007000000000000001 0 0  0.008 0 0  0.009000000000000001 0 0  0.01 0 0  0.011 0 0  0.012 0 0  0.013 0 0  0.014 0 0  0.015 0 0  0.016 0 0  0.017 0 0  0.018 0 0  0.019 0 0  0.02 0 0  0.021 0 0  0.022 0 0  0.023 0 0  0.024 0 0  0.025 0 0  0.026 0 0  0.027 0 0  0.028 0 0  0.029 0 0  0.03 0 0  0.031 0 0  0.032 0 0  0.033 0 0  0.034 0 0  0.035 0 0  0.036 0 0  0.03700000000000001 0 0  0.03800000000000001 0 0  0.03900000000000001 0 0  0.04 0 0  0.04100000000000001 0 0  0.042 0 0  0.043 0 0  0.044 0 0  0.045 0 0  0.04600000000000001 0 0  0.047 0 0  0.04800000000000001 0 0  0.049 0 0  0.05 0 0  0.051 0 0  0.052 0 0  0.05300000000000001 0 0  0.05400000000000001 0 0  0.055 0 0  0.05600000000000001 0 0  0.057 0 0  0.05800000000000001 0 0  0.059 0 0  0.06 0 0  0.06100000000000001 0 0  0.062 0 0  0.063 0 0  0.064 0 0  0.065 0 0  0.066 0 0  0.067 0 0  0.068 0 0  0.06900000000000001 0 0  0.07000000000000001 0 0  0.07100000000000001 0 0  0.07200000000000001 0 0  0.07300000000000001 0 0  0.07400000000000001 0 0  0.075 0 0  0.07600000000000001 0 0  0.077 0 0  0.07800000000000001 0 0  0.079 0 0  0.08 0 0  0.081 0 0  0.08200000000000002 0 0  0.083 0 0  0.08400000000000001 0 0  0.08500000000000001 0 0  0.08599999999999999 0 0  0.08700000000000001 0 0  0.08800000000000001 0 0  0.08900000000000001 0 0  0.09 0 0  0.091 0 0  0.09200000000000001 0 0  0.09300000000000001 0 0  0.094 0 0  0.095 0 0  0.09600000000000002 0 0  0.09700000000000002 0 0  0.098 0 0  0.099 0 0  0.1 0 0  </DataArray>
</Points>
<Cells>
<DataArray  type="UInt32"  Name="connectivity"  format="ascii">0 1  1 2  2 3  3 4  4 5  5 6  6 7  7 8  8 9  9 10  10 11  11 12  12 13  13 14  14 15  15 16  16 17  17 18  18 19  19 20  20 21  21 22  22 23  23 24  24 25  25 26  26 27  27 28  28 29  29 30  30 31  31 32  32 33  33 34  34 35  35 36  36 37  37 38  38 39  39 40  40 41  41 42  42 43  43 44  44 45  45 46  46 47  47 48  48 49  49 50  50 51  51 52  52 53  53 54  54 55  55 56  56 57  57 58  58 59  59 60  60 61  61 62  62 63  63 64  64 65  65 66  66 67  67 68  68 69  69 70  70 71  71 72  72 73  73 74  74 75  75 76  76 77  77 78  78 79  79 80  80 81  81 82  82 83  83 84  84 85  85 86  86 87  87 88  88 89  89 90  90 91  91 92  92 93  93 94  94 95  95 96  96 97  97 98  98 99  99 100  </DataArray>
<DataArray  type="UInt32"  Name="offsets"  format="ascii">2 4 6 8 10 12 14 16 18 20 22 24 26 28 30 32 34 36 38 40 42 44 46 48 50 52 54 56 58 60 62 64 66 68 70 72 74 76 78 80 82 84 86 88 90 92 94 96 98 100 102 104 106 108 110 112 114 116 118 120 122 124 126 128 130 132 134 136 138 140 142 144 146 148 150 152 154 156 158 160 162 164 166 168 170 172 174 176 178 180 182 184 186 188 190 192 194 196 198 200 </DataArray>
<DataArray  type="UInt8"  Name="types"  format="ascii">3 3 3 3 3 3 3 3 3 3 3 3 3 3 3 3 3 3 3 3 3 3 3 3 3 3 3 3 3 3 3 3 3 3 3 3 3 3 3 3 3 3 3 3 3 3 3 3 3 3 3 3 3 3 3 3 3 3 3 3 3 3 3 3 3 3 3 3 3 3 3 3 3 3 3 3 3 3 3 3 3 3 3 3 3 3 3 3 3 3 3 3 3 3 3 3 3 3 3 3 </DataArray>
</Cells>
<PointData  Scalars="f_14"> 
<DataArray  type="Float64"  Name="f_14"  format="ascii">6.4168591326787503e-06  6.5729149422772682e-06  7.0473696853345074e-06  7.8592806498343561e-06  9.0410650837769912e-06  1.0639496694314514e-05  1.2717128510271544e-05  1.5354170029591852e-05  1.8650854764806342e-05  2.2730342631506515e-05  2.7742210105710285e-05  3.3866589700945143e-05  4.1319029063631054e-05  5.0356148815870526e-05  6.1282187126592244e-05  7.4456527779784564e-05  9.0302317120638875e-05  1.0931628355665611e-04  1.3207988110060863e-04  1.5927188556319791e-04  1.9168257819981473e-04  2.3022965661904858e-04  2.7597601626839531e-04  3.3014954749089931e-04  3.9416509263132273e-04  4.6964870457152268e-04  5.5846434197985768e-04  6.6274312704064085e-04  7.8491527805070905e-04  9.2774481159565297e-04  1.0943670866243264e-03  1.2883292352268963e-03  1.5136334919265393e-03  1.7747833945085515e-03  2.0768327845929304e-03  2.4254374851542340e-03  2.8269094749573814e-03  3.2882733164848873e-03  3.8173245245963060e-03  4.4226894882593987e-03  5.1138864777748047e-03  5.9013871857204556e-03  6.7966781623071222e-03  7.8123214161095501e-03  8.9620133605751180e-03  1.0260641196883313e-02  1.1724335736404712e-02  1.3370519583147819e-02  1.5217949520320443e-02  1.7286751877739835e-02  1.9598449600692725e-02  2.2175979698420261e-02  2.5043699724163631e-02  2.8227381931087529e-02  3.1754193761750614e-02  3.5652663365296523e-02  3.9952628898154180e-02  4.4685170452415733e-02  4.9882523572494959e-02  5.5577973465991658e-02  6.1805729189249294e-02  6.8600777291643586e-02  7.5998714634343184e-02  8.4035560357612199e-02  9.2747547253472951e-02  1.0217089310480736e-01  1.1234155287411479e-01  1.2329495296086528e-01  1.3506570909072893e-01  1.4768732974738100e-01  1.6119190740201725e-01  1.7560980013068941e-01  1.9096930652830835e-01  2.0729633712371109e-01  2.2461408576557093e-01  2.4294270467729684e-01  2.6229898706387095e-01  2.8269606128869434e-01  3.0414310071852324e-01  3.2664505335472660e-01  3.5020239532573705e-01  3.7481091220591861e-01  4.0046151194877777e-01  4.2714007297722695e-01  4.5482733066170933e-01  4.8349880504094123e-01  5.1312477220384034e-01  5.4367028126018946e-01  5.7509521828841337e-01  6.0735441806942458e-01  6.4039782380466836e-01  6.7417069438426758e-01  7.0861385812800315e-01  7.4366401127895565e-01  7.7925405889830701e-01  8.1531349520150120e-01  8.5176881980189945e-01  8.8854398579895588e-01  9.2556087517381258e-01  9.6273979654514452e-01  1.0000000000000000e+00  </DataArray> 
</PointData> 
</Piece>
</UnstructuredGrid>
</VTKFile>