<?xml version="1.0"?>
<VTKFile type="UnstructuredGrid"  version="0.1"  >
<UnstructuredGrid>
<Piece  NumberOfPoints="101" NumberOfCells="100">
<Points>
<DataArray  type="Float64"  NumberOfComponents="3"  format="ascii">0 0 0  0.001 0 0  0.002 0 0  0.003 0 0  0.004 0 0  0.005 0 0  0.006000000000000001 0 0  0.007000000000000001 0 0  0.008 0 0  0.009000000000000001 0 0  0.01 0 0  0.011 0 0  0.012 0 0  0.013 0 0  0.014 0 0  0.015 0 0  0.016 0 0  0.017 0 0  0.018 0 0  0.019 0 0  0.02 0 0  0.021 0 0  0.022 0 0  0.023 0 0  0.024 0 0  0.025 0 0  0.026 0 0  0.027 0 0  0.028 0 0  0.029 0 0  0.03 0 0  0.031 0 0  0.032 0 0  0.033 0 0  0.034 0 0  0.035 0 0  0.036 0 0  0.03700000000000001 0 0  0.03800000000000001 0 0  0.03900000000000001 0 0  0.04 0 0  0.04100000000000001 0 0  0.042 0 0  0.043 0 0  0.044 0 0  0.045 0 0  0.04600000000000001 0 0  0.047 0 0  0.04800000000000001 0 0  0.049 0 0  0.05 0 0  0.051 0 0  0.052 0 0  0.05300000000000001 0 0  0.05400000000000001 0 0  0.055 0 0  0.05600000000000001 0 0  0.057 0 0  0.05800000000000001 0 0  0.059 0 0  0.06 0 0  0.06100000000000001 0 0  0.062 0 0  0.063 0 0  0.064 0 0  0.065 0 0  0.066 0 0  0.067 0 0  0.068 0 0  0.06900000000000001 0 0  0.07000000000000001 0 0  0.07100000000000001 0 0  0.07200000000000001 0 0  0.07300000000000001 0 0  0.07400000000000001 0 0  0.075 0 0  0.07600000000000001 0 0  0.077 0 0  0.07800000000000001 0 0  0.079 0 0  0.08 0 0  0.081 0 0  0.08200000000000002 0 0  0.083 0 0  0.08400000000000001 0 0  0.08500000000000001 0 0  0.08599999999999999 0 0  0.08700000000000001 0 0  0.08800000000000001 0 0  0.08900000000000001 0 0  0.09 0 0  0.091 0 0  0.09200000000000001 0 0  0.09300000000000001 0 0  0.094 0 0  0.095 0 0  0.09600000000000002 0 0  0.09700000000000002 0 0  0.098 0 0  0.099 0 0  0.1 0 0  </DataArray>
</Points>
<Cells>
<DataArray  type="UInt32"  Name="connectivity"  format="ascii">0 1  1 2  2 3  3 4  4 5  5 6  6 7  7 8  8 9  9 10  10 11  11 12  12 13  13 14  14 15  15 16  16 17  17 18  18 19  19 20  20 21  21 22  22 23  23 24  24 25  25 26  26 27  27 28  28 29  29 30  30 31  31 32  32 33  33 34  34 35  35 36  36 37  37 38  38 39  39 40  40 41  41 42  42 43  43 44  44 45  45 46  46 47  47 48  48 49  49 50  50 51  51 52  52 53  53 54  54 55  55 56  56 57  57 58  58 59  59 60  60 61  61 62  62 63  63 64  64 65  65 66  66 67  67 68  68 69  69 70  70 71  71 72  72 73  73 74  74 75  75 76  76 77  77 78  78 79  79 80  80 81  81 82  82 83  83 84  84 85  85 86  86 87  87 88  88 89  89 90  90 91  91 92  92 93  93 94  94 95  95 96  96 97  97 98  98 99  99 100  </DataArray>
<DataArray  type="UInt32"  Name="offsets"  format="ascii">2 4 6 8 10 12 14 16 18 20 22 24 26 28 30 32 34 36 38 40 42 44 46 48 50 52 54 56 58 60 62 64 66 68 70 72 74 76 78 80 82 84 86 88 90 92 94 96 98 100 102 104 106 108 110 112 114 116 118 120 122 124 126 128 130 132 134 136 138 140 142 144 146 148 150 152 154 156 158 160 162 164 166 168 170 172 174 176 178 180 182 184 186 188 190 192 194 196 198 200 </DataArray>
<DataArray  type="UInt8"  Name="types"  format="ascii">3 3 3 3 3 3 3 3 3 3 3 3 3 3 3 3 3 3 3 3 3 3 3 3 3 3 3 3 3 3 3 3 3 3 3 3 3 3 3 3 3 3 3 3 3 3 3 3 3 3 3 3 3 3 3 3 3 3 3 3 3 3 3 3 3 3 3 3 3 3 3 3 3 3 3 3 3 3 3 3 3 3 3 3 3 3 3 3 3 3 3 3 3 3 3 3 3 3 3 3 </DataArray>
</Cells>
<PointData  Scalars="f_14"> 
<DataArray  type="Float64"  Name="f_14"  format="ascii">1.4348808604777275e-06  1.4793540888477361e-06  1.6151113879414069e-06  1.8492644215589141e-06  2.1939983839144473e-06  2.6670812307632162e-06  3.2925979688203178e-06  4.1019317571106576e-06  5.1350203369098413e-06  6.4419234693604951e-06  8.0847446971333498e-06  1.0139958925205789e-05  1.2701206091193828e-05  1.5882620608838921e-05  1.9822776343095819e-05  2.4689337614844278e-05  3.0684518115839470e-05  3.8051461589340242e-05  4.7081670614471430e-05  5.8123622699872567e-05  7.1592725978269052e-05  8.7982779883722704e-05  1.0787911902001494e-04  1.3197363066729274e-04  1.6108184763947300e-04  1.9616232804837996e-04  2.3833854143896945e-04  2.8892348615566077e-04  3.4944726504291905e-04  4.2168784497617498e-04  5.0770521951358310e-04  6.0987918236591384e-04  7.3095090158442524e-04  8.7406845953742990e-04  1.0428364910673507e-03  1.2413700109066060e-03  1.4743524707587401e-03  1.7470980257884774e-03  2.0656179191041965e-03  2.4366908108138926e-03  2.8679367852464761e-03  3.3678946660487719e-03  3.9461021544672497e-03  4.6131781818904410e-03  5.3809067346995889e-03  6.2623212690688448e-03  7.2717886873905719e-03  8.4250916987131125e-03  9.7395082356298134e-03  1.1233886452525342e-02  1.2928713688448995e-02  1.4846177645983274e-02  1.7010217919472936e-02  1.9446565906280820e-02  2.2182771057924940e-02  2.5248211378676253e-02  2.8674086062069806e-02  3.2493388175244914e-02  3.6740855361223512e-02  4.1452896633837777e-02  4.6667493492119121e-02  5.2424073782873962e-02  5.8763356993326334e-02  6.5727169960471385e-02  7.3358232339360577e-02  8.1699911576864029e-02  9.0795947587089018e-02  1.0069014781475200e-01  1.1142605389714449e-01  1.2304658168625436e-01  1.3559363696112198e-01  1.4910770973643225e-01  1.6362745064540779e-01  1.7918923343115234e-01  1.9582670810795880e-01  2.1357034983964684e-01  2.3244700901262055e-01  2.5247946834419771e-01  2.7368601314972868e-01  2.9608002108387022e-01  3.1966957776240501e-01  3.4445712465300438e-01  3.7043914549034201e-01  3.9760589721910683e-01  4.2594119109653256e-01  4.5542222909539715e-01  4.8601950014332840e-01  5.1769674002160704e-01  5.5041095793632211e-01  5.8411253187911882e-01  6.1874537392868256e-01  6.5424716562460228e-01  6.9054966249108674e-01  7.2757906571938302e-01  7.6525645795575881e-01  8.0349829910804904e-01  8.4221697709945920e-01  8.8132140758427313e-01  9.2071767581587338e-01  9.6030971314088698e-01  1.0000000000000000e+00  </DataArray> 
</PointData> 
</Piece>
</UnstructuredGrid>
</VTKFile>