<?xml version="1.0"?>
<VTKFile type="UnstructuredGrid"  version="0.1"  >
<UnstructuredGrid>
<Piece  NumberOfPoints="101" NumberOfCells="100">
<Points>
<DataArray  type="Float64"  NumberOfComponents="3"  format="ascii">0 0 0  0.001 0 0  0.002 0 0  0.003 0 0  0.004 0 0  0.005 0 0  0.006000000000000001 0 0  0.007000000000000001 0 0  0.008 0 0  0.009000000000000001 0 0  0.01 0 0  0.011 0 0  0.012 0 0  0.013 0 0  0.014 0 0  0.015 0 0  0.016 0 0  0.017 0 0  0.018 0 0  0.019 0 0  0.02 0 0  0.021 0 0  0.022 0 0  0.023 0 0  0.024 0 0  0.025 0 0  0.026 0 0  0.027 0 0  0.028 0 0  0.029 0 0  0.03 0 0  0.031 0 0  0.032 0 0  0.033 0 0  0.034 0 0  0.035 0 0  0.036 0 0  0.03700000000000001 0 0  0.03800000000000001 0 0  0.03900000000000001 0 0  0.04 0 0  0.04100000000000001 0 0  0.042 0 0  0.043 0 0  0.044 0 0  0.045 0 0  0.04600000000000001 0 0  0.047 0 0  0.04800000000000001 0 0  0.049 0 0  0.05 0 0  0.051 0 0  0.052 0 0  0.05300000000000001 0 0  0.05400000000000001 0 0  0.055 0 0  0.05600000000000001 0 0  0.057 0 0  0.05800000000000001 0 0  0.059 0 0  0.06 0 0  0.06100000000000001 0 0  0.062 0 0  0.063 0 0  0.064 0 0  0.065 0 0  0.066 0 0  0.067 0 0  0.068 0 0  0.06900000000000001 0 0  0.07000000000000001 0 0  0.07100000000000001 0 0  0.07200000000000001 0 0  0.07300000000000001 0 0  0.07400000000000001 0 0  0.075 0 0  0.07600000000000001 0 0  0.077 0 0  0.07800000000000001 0 0  0.079 0 0  0.08 0 0  0.081 0 0  0.08200000000000002 0 0  0.083 0 0  0.08400000000000001 0 0  0.08500000000000001 0 0  0.08599999999999999 0 0  0.08700000000000001 0 0  0.08800000000000001 0 0  0.08900000000000001 0 0  0.09 0 0  0.091 0 0  0.09200000000000001 0 0  0.09300000000000001 0 0  0.094 0 0  0.095 0 0  0.09600000000000002 0 0  0.09700000000000002 0 0  0.098 0 0  0.099 0 0  0.1 0 0  </DataArray>
</Points>
<Cells>
<DataArray  type="UInt32"  Name="connectivity"  format="ascii">0 1  1 2  2 3  3 4  4 5  5 6  6 7  7 8  8 9  9 10  10 11  11 12  12 13  13 14  14 15  15 16  16 17  17 18  18 19  19 20  20 21  21 22  22 23  23 24  24 25  25 26  26 27  27 28  28 29  29 30  30 31  31 32  32 33  33 34  34 35  35 36  36 37  37 38  38 39  39 40  40 41  41 42  42 43  43 44  44 45  45 46  46 47  47 48  48 49  49 50  50 51  51 52  52 53  53 54  54 55  55 56  56 57  57 58  58 59  59 60  60 61  61 62  62 63  63 64  64 65  65 66  66 67  67 68  68 69  69 70  70 71  71 72  72 73  73 74  74 75  75 76  76 77  77 78  78 79  79 80  80 81  81 82  82 83  83 84  84 85  85 86  86 87  87 88  88 89  89 90  90 91  91 92  92 93  93 94  94 95  95 96  96 97  97 98  98 99  99 100  </DataArray>
<DataArray  type="UInt32"  Name="offsets"  format="ascii">2 4 6 8 10 12 14 16 18 20 22 24 26 28 30 32 34 36 38 40 42 44 46 48 50 52 54 56 58 60 62 64 66 68 70 72 74 76 78 80 82 84 86 88 90 92 94 96 98 100 102 104 106 108 110 112 114 116 118 120 122 124 126 128 130 132 134 136 138 140 142 144 146 148 150 152 154 156 158 160 162 164 166 168 170 172 174 176 178 180 182 184 186 188 190 192 194 196 198 200 </DataArray>
<DataArray  type="UInt8"  Name="types"  format="ascii">3 3 3 3 3 3 3 3 3 3 3 3 3 3 3 3 3 3 3 3 3 3 3 3 3 3 3 3 3 3 3 3 3 3 3 3 3 3 3 3 3 3 3 3 3 3 3 3 3 3 3 3 3 3 3 3 3 3 3 3 3 3 3 3 3 3 3 3 3 3 3 3 3 3 3 3 3 3 3 3 3 3 3 3 3 3 3 3 3 3 3 3 3 3 3 3 3 3 3 3 </DataArray>
</Cells>
<PointData  Scalars="f_14"> 
<DataArray  type="Float64"  Name="f_14"  format="ascii">4.9562445829599994e-06  5.0821955403644356e-06  5.4653746673853271e-06  6.1219358787101293e-06  7.0793900327238606e-06  8.3774998737701466e-06  1.0069559925910311e-05  1.2224088522678103e-05  1.4926967213161224e-05  1.8284071037780150e-05  2.2424441639398020e-05  2.7504063875518959e-05  3.3710315517911413e-05  4.1267168740846935e-05  5.0441231360536232e-05  6.1548725124193290e-05  7.4963507658296511e-05  9.1126253843146747e-05  1.1055492122369855e-04  1.3385663239950577e-04  1.6174111492811081e-04  1.9503584585776234e-04  2.3470305327074359e-04  2.8185873082434989e-04  3.3779382284328095e-04  4.0399773663225564e-04  4.8218433489899057e-04  5.7432055403934068e-04  6.8265778305562461e-04  8.0976612256505355e-04  9.5857162321960122e-04  1.1323965774284502e-03  1.3350029071057029e-03  1.5706386528613523e-03  1.8440875262776947e-03  2.1607214364141791e-03  2.5265558443112392e-03  2.9483077349915904e-03  3.4334559254038284e-03  3.9903033492011287e-03  4.6280408756652642e-03  5.3568121311435178e-03  6.1877786979513934e-03  7.1331849689259107e-03  8.2064218370468296e-03  9.4220883003730098e-03  1.0796049964798811e-02  1.2345493332878659e-02  1.4088974678465557e-02  1.6046462226607727e-02  1.8239370288652797e-02  2.0690583946522623e-02  2.3424472840417054e-02  2.6466892593541725e-02  2.9845172408537304e-02  3.3588087395675766e-02  3.7725814244932425e-02  4.2289868934791856e-02  4.7313025281782183e-02  5.2829213277464752e-02  5.8873396334629416e-02  6.5481426771813997e-02  7.2689879104391425e-02  8.0535860980005120e-02  8.9056801893977550e-02  9.8290220143576509e-02  1.0827346882498036e-01  1.1904346203895079e-01  1.3063638284534537e-01  1.4308737488672543e-01  1.5643021998087137e-01  1.7069700435390642e-01  1.8591777654247463e-01  2.0212020032726499e-01  2.1932920636330580e-01  2.3756664643710540e-01  2.5685095449942130e-01  2.7719681878815738e-01  2.9861486946228216e-01  3.2111138620912766e-01  3.4468803025955058e-01  3.6934160514475789e-01  3.9506385035321556e-01  4.2184127179529807e-01  4.4965501265820818e-01  4.7848076783667465e-01  5.0828874466017948e-01  5.3904367211061677e-01  5.7070486014253485e-01  6.0322631009009131e-01  6.3655687648028869e-01  6.7064047988199149e-01  7.0541636971631239e-01  7.4081943524865679e-01  7.7678056228872649e-01  8.1322703245493844e-01  8.5008296122661064e-01  8.8726977042301214e-01  9.2470669022425389e-01  9.6231128539529398e-01  1.0000000000000000e+00  </DataArray> 
</PointData> 
</Piece>
</UnstructuredGrid>
</VTKFile>