<?xml version="1.0"?>
<VTKFile type="UnstructuredGrid"  version="0.1"  >
<UnstructuredGrid>
<Piece  NumberOfPoints="101" NumberOfCells="100">
<Points>
<DataArray  type="Float64"  NumberOfComponents="3"  format="ascii">0 0 0  0.001 0 0  0.002 0 0  0.003 0 0  0.004 0 0  0.005 0 0  0.006000000000000001 0 0  0.007000000000000001 0 0  0.008 0 0  0.009000000000000001 0 0  0.01 0 0  0.011 0 0  0.012 0 0  0.013 0 0  0.014 0 0  0.015 0 0  0.016 0 0  0.017 0 0  0.018 0 0  0.019 0 0  0.02 0 0  0.021 0 0  0.022 0 0  0.023 0 0  0.024 0 0  0.025 0 0  0.026 0 0  0.027 0 0  0.028 0 0  0.029 0 0  0.03 0 0  0.031 0 0  0.032 0 0  0.033 0 0  0.034 0 0  0.035 0 0  0.036 0 0  0.03700000000000001 0 0  0.03800000000000001 0 0  0.03900000000000001 0 0  0.04 0 0  0.04100000000000001 0 0  0.042 0 0  0.043 0 0  0.044 0 0  0.045 0 0  0.04600000000000001 0 0  0.047 0 0  0.04800000000000001 0 0  0.049 0 0  0.05 0 0  0.051 0 0  0.052 0 0  0.05300000000000001 0 0  0.05400000000000001 0 0  0.055 0 0  0.05600000000000001 0 0  0.057 0 0  0.05800000000000001 0 0  0.059 0 0  0.06 0 0  0.06100000000000001 0 0  0.062 0 0  0.063 0 0  0.064 0 0  0.065 0 0  0.066 0 0  0.067 0 0  0.068 0 0  0.06900000000000001 0 0  0.07000000000000001 0 0  0.07100000000000001 0 0  0.07200000000000001 0 0  0.07300000000000001 0 0  0.07400000000000001 0 0  0.075 0 0  0.07600000000000001 0 0  0.077 0 0  0.07800000000000001 0 0  0.079 0 0  0.08 0 0  0.081 0 0  0.08200000000000002 0 0  0.083 0 0  0.08400000000000001 0 0  0.08500000000000001 0 0  0.08599999999999999 0 0  0.08700000000000001 0 0  0.08800000000000001 0 0  0.08900000000000001 0 0  0.09 0 0  0.091 0 0  0.09200000000000001 0 0  0.09300000000000001 0 0  0.094 0 0  0.095 0 0  0.09600000000000002 0 0  0.09700000000000002 0 0  0.098 0 0  0.099 0 0  0.1 0 0  </DataArray>
</Points>
<Cells>
<DataArray  type="UInt32"  Name="connectivity"  format="ascii">0 1  1 2  2 3  3 4  4 5  5 6  6 7  7 8  8 9  9 10  10 11  11 12  12 13  13 14  14 15  15 16  16 17  17 18  18 19  19 20  20 21  21 22  22 23  23 24  24 25  25 26  26 27  27 28  28 29  29 30  30 31  31 32  32 33  33 34  34 35  35 36  36 37  37 38  38 39  39 40  40 41  41 42  42 43  43 44  44 45  45 46  46 47  47 48  48 49  49 50  50 51  51 52  52 53  53 54  54 55  55 56  56 57  57 58  58 59  59 60  60 61  61 62  62 63  63 64  64 65  65 66  66 67  67 68  68 69  69 70  70 71  71 72  72 73  73 74  74 75  75 76  76 77  77 78  78 79  79 80  80 81  81 82  82 83  83 84  84 85  85 86  86 87  87 88  88 89  89 90  90 91  91 92  92 93  93 94  94 95  95 96  96 97  97 98  98 99  99 100  </DataArray>
<DataArray  type="UInt32"  Name="offsets"  format="ascii">2 4 6 8 10 12 14 16 18 20 22 24 26 28 30 32 34 36 38 40 42 44 46 48 50 52 54 56 58 60 62 64 66 68 70 72 74 76 78 80 82 84 86 88 90 92 94 96 98 100 102 104 106 108 110 112 114 116 118 120 122 124 126 128 130 132 134 136 138 140 142 144 146 148 150 152 154 156 158 160 162 164 166 168 170 172 174 176 178 180 182 184 186 188 190 192 194 196 198 200 </DataArray>
<DataArray  type="UInt8"  Name="types"  format="ascii">3 3 3 3 3 3 3 3 3 3 3 3 3 3 3 3 3 3 3 3 3 3 3 3 3 3 3 3 3 3 3 3 3 3 3 3 3 3 3 3 3 3 3 3 3 3 3 3 3 3 3 3 3 3 3 3 3 3 3 3 3 3 3 3 3 3 3 3 3 3 3 3 3 3 3 3 3 3 3 3 3 3 3 3 3 3 3 3 3 3 3 3 3 3 3 3 3 3 3 3 </DataArray>
</Cells>
<PointData  Scalars="f_14"> 
<DataArray  type="Float64"  Name="f_14"  format="ascii">1.3548023884297372e-08  1.4318890598245018e-08  1.6709445222227227e-08  2.0960380208239721e-08  2.7496110434598155e-08  3.6961433321429963e-08  5.0276492231900268e-08  6.8713922567451986e-08  9.4003520746547171e-08  1.2847151757032241e-07  1.7522363971651303e-07  2.3838369744169442e-07  3.2340254682713839e-07  4.3745605925196922e-07  5.8995532326482474e-07  7.9319785575563336e-07  1.0631952791951879e-06  1.4207209164998185e-06  1.8926302687541786e-06  2.5135185929425328e-06  3.3277930186388289e-06  4.3922520734873289e-06  5.7792833673685121e-06  7.5808107464811098e-06  9.9131456837894100e-06  1.2922924200183208e-05  1.6794340338841062e-05  2.1757920199334244e-05  2.8101116737738959e-05  3.6181044791168466e-05  4.6439717773309810e-05  5.9422191709803673e-05  7.5798068017112662e-05  9.6386852700304715e-05  1.2218771519079626e-04  1.5441423328320614e-04  1.9453474963576639e-04  2.4431899778380142e-04  3.0589167892320973e-04  3.8179368182879954e-04  4.7505163381662547e-04  5.8925644697575515e-04  7.2865147708335879e-04  8.9823083863307257e-04  1.1038483141784900e-03  1.3523371557701924e-03  1.6516408969903076e-03  2.0109550728071085e-03  2.4408794787558067e-03  2.9535802893471620e-03  3.5629609978982094e-03  4.2848407374544185e-03  5.1371380981778880e-03  6.1400580755555569e-03  7.3162792732831437e-03  8.6911379543067550e-03  1.0292804995299425e-02  1.2152451268302817e-02  1.4304396465213138e-02  1.6786235915209335e-02  1.9638939542900101e-02  2.2906916798029968e-02  2.6638041178925178e-02  3.0883627894395881e-02  3.5698358284664083e-02  4.1140144871457902e-02  4.7269931348361521e-02  5.4151422468743861e-02  6.1850739649206607e-02  7.0435999184815259e-02  7.9976811265052045e-02  9.0543699475705688e-02  1.0220744215309323e-01  1.1503833879618135e-01  1.2910540670421039e-01  1.4447551504931960e-01  1.6121246566523811e-01  1.7937603187798640e-01  1.9902096866166955e-01  2.2019600920764695e-01  2.4294286458356795e-01  2.6729524446592412e-01  2.9327791789561936e-01  3.2090583357618724e-01  3.5018331936286251e-01  3.8110338024247825e-01  4.1364711325669806e-01  4.4778325646621409e-01  4.8346788719875278e-01  5.2064428249277084e-01  5.5924295188159556e-01  5.9918184951547337e-01  6.4036676916198643e-01  6.8269192194205719e-01  7.2604069284312356e-01  7.7028656820456243e-01  8.1529422259895667e-01  8.6092074994299650e-01  9.0701702036754117e-01  9.5342914145489344e-01  1.0000000000000000e+00  </DataArray> 
</PointData> 
</Piece>
</UnstructuredGrid>
</VTKFile>