<?xml version="1.0"?>
<VTKFile type="UnstructuredGrid"  version="0.1"  >
<UnstructuredGrid>
<Piece  NumberOfPoints="101" NumberOfCells="100">
<Points>
<DataArray  type="Float64"  NumberOfComponents="3"  format="ascii">0 0 0  0.001 0 0  0.002 0 0  0.003 0 0  0.004 0 0  0.005 0 0  0.006000000000000001 0 0  0.007000000000000001 0 0  0.008 0 0  0.009000000000000001 0 0  0.01 0 0  0.011 0 0  0.012 0 0  0.013 0 0  0.014 0 0  0.015 0 0  0.016 0 0  0.017 0 0  0.018 0 0  0.019 0 0  0.02 0 0  0.021 0 0  0.022 0 0  0.023 0 0  0.024 0 0  0.025 0 0  0.026 0 0  0.027 0 0  0.028 0 0  0.029 0 0  0.03 0 0  0.031 0 0  0.032 0 0  0.033 0 0  0.034 0 0  0.035 0 0  0.036 0 0  0.03700000000000001 0 0  0.03800000000000001 0 0  0.03900000000000001 0 0  0.04 0 0  0.04100000000000001 0 0  0.042 0 0  0.043 0 0  0.044 0 0  0.045 0 0  0.04600000000000001 0 0  0.047 0 0  0.04800000000000001 0 0  0.049 0 0  0.05 0 0  0.051 0 0  0.052 0 0  0.05300000000000001 0 0  0.05400000000000001 0 0  0.055 0 0  0.05600000000000001 0 0  0.057 0 0  0.05800000000000001 0 0  0.059 0 0  0.06 0 0  0.06100000000000001 0 0  0.062 0 0  0.063 0 0  0.064 0 0  0.065 0 0  0.066 0 0  0.067 0 0  0.068 0 0  0.06900000000000001 0 0  0.07000000000000001 0 0  0.07100000000000001 0 0  0.07200000000000001 0 0  0.07300000000000001 0 0  0.07400000000000001 0 0  0.075 0 0  0.07600000000000001 0 0  0.077 0 0  0.07800000000000001 0 0  0.079 0 0  0.08 0 0  0.081 0 0  0.08200000000000002 0 0  0.083 0 0  0.08400000000000001 0 0  0.08500000000000001 0 0  0.08599999999999999 0 0  0.08700000000000001 0 0  0.08800000000000001 0 0  0.08900000000000001 0 0  0.09 0 0  0.091 0 0  0.09200000000000001 0 0  0.09300000000000001 0 0  0.094 0 0  0.095 0 0  0.09600000000000002 0 0  0.09700000000000002 0 0  0.098 0 0  0.099 0 0  0.1 0 0  </DataArray>
</Points>
<Cells>
<DataArray  type="UInt32"  Name="connectivity"  format="ascii">0 1  1 2  2 3  3 4  4 5  5 6  6 7  7 8  8 9  9 10  10 11  11 12  12 13  13 14  14 15  15 16  16 17  17 18  18 19  19 20  20 21  21 22  22 23  23 24  24 25  25 26  26 27  27 28  28 29  29 30  30 31  31 32  32 33  33 34  34 35  35 36  36 37  37 38  38 39  39 40  40 41  41 42  42 43  43 44  44 45  45 46  46 47  47 48  48 49  49 50  50 51  51 52  52 53  53 54  54 55  55 56  56 57  57 58  58 59  59 60  60 61  61 62  62 63  63 64  64 65  65 66  66 67  67 68  68 69  69 70  70 71  71 72  72 73  73 74  74 75  75 76  76 77  77 78  78 79  79 80  80 81  81 82  82 83  83 84  84 85  85 86  86 87  87 88  88 89  89 90  90 91  91 92  92 93  93 94  94 95  95 96  96 97  97 98  98 99  99 100  </DataArray>
<DataArray  type="UInt32"  Name="offsets"  format="ascii">2 4 6 8 10 12 14 16 18 20 22 24 26 28 30 32 34 36 38 40 42 44 46 48 50 52 54 56 58 60 62 64 66 68 70 72 74 76 78 80 82 84 86 88 90 92 94 96 98 100 102 104 106 108 110 112 114 116 118 120 122 124 126 128 130 132 134 136 138 140 142 144 146 148 150 152 154 156 158 160 162 164 166 168 170 172 174 176 178 180 182 184 186 188 190 192 194 196 198 200 </DataArray>
<DataArray  type="UInt8"  Name="types"  format="ascii">3 3 3 3 3 3 3 3 3 3 3 3 3 3 3 3 3 3 3 3 3 3 3 3 3 3 3 3 3 3 3 3 3 3 3 3 3 3 3 3 3 3 3 3 3 3 3 3 3 3 3 3 3 3 3 3 3 3 3 3 3 3 3 3 3 3 3 3 3 3 3 3 3 3 3 3 3 3 3 3 3 3 3 3 3 3 3 3 3 3 3 3 3 3 3 3 3 3 3 3 </DataArray>
</Cells>
<PointData  Scalars="f_14"> 
<DataArray  type="Float64"  Name="f_14"  format="ascii">4.0229496350964813e-04  4.0637114247069788e-04  4.1866053052666232e-04  4.3934620887931008e-04  4.6873507156949118e-04  5.0726046265263511e-04  5.5548586633114765e-04  6.1410964778026026e-04  6.8397084126010357e-04  7.6605598059568286e-04  8.6150696515267659e-04  9.7162995196896319e-04  1.0979052616526758e-03  1.2419982819660154e-03  1.4057713486250634e-03  1.5912965777118754e-03  1.8008696181768997e-03  2.0370242861774013e-03  2.3025480354315398e-03  2.6004982093599826e-03  2.9342190115418392e-03  3.3073591209472068e-03  3.7238898675570884e-03  4.1881238723906998e-03  4.7047340436941979e-03  5.2787728081845255e-03  5.9156914428857756e-03  6.6213593593593091e-03  7.4020831781470894e-03  8.2646254171721955e-03  9.2162226038409525e-03  1.0264602606854020e-02  1.1418000970461396e-02  1.2685176021306118e-02  1.4075422506322743e-02  1.5598583509631402e-02  1.7265060387245307e-02  1.9085820450944667e-02  2.1072402127121383e-02  2.3236917313023527e-02  2.5592050651880083e-02  2.8151055450108129e-02  3.0927745964428367e-02  3.3936485794455809e-02  3.7192172127378895e-02  4.0710215595862805e-02  4.4506515528441197e-02  4.8597430393492680e-02  5.2999743263497677e-02  5.7730622155640003e-02  6.2807575137934987e-02  6.8248400126828965e-02  7.4071129342499750e-02  8.0293968431681767e-02  8.6935230314498513e-02  9.4013263861189578e-02  1.0154637755640195e-01  1.0955275836244191e-01  1.1805038604808293e-01  1.2705694330564427e-01  1.3658972203553810e-01  1.4666552623367832e-01  1.5730057197242273e-01  1.6851038501937171e-01  1.8030969668967575e-01  1.9271233857579625e-01  2.0573113684318667e-01  2.1937780682041658e-01  2.3366284864715017e-01  2.4859544477245316e-01  2.6418336011851534e-01  2.8043284574047722e-01  2.9734854682111783e-01  3.1493341583928403e-01  3.3318863174274055e-01  3.5211352593936029e-01  3.7170551589507017e-01  3.9196004709267068e-01  4.1287054406262108e-01  4.3442837114524296e-01  4.5662280358390384e-01  4.7944100948089119e-01  5.0286804307248190e-01  5.2688684969769373e-01  5.5147828274714394e-01  5.7662113278512406e-01  6.0229216894036552e-01  6.2846619255998093e-01  6.5511610301777623e-01  6.8221297546368809e-01  7.0972615019657037e-01  7.3762333323919660e-01  7.6587070759327913e-01  7.9443305455471958e-01  8.2327388437634685e-01  8.5235557547816410e-01  8.8163952132465706e-01  9.1108628401602032e-01  9.4065575357606390e-01  9.7030731186490793e-01  1.0000000000000000e+00  </DataArray> 
</PointData> 
</Piece>
</UnstructuredGrid>
</VTKFile>