<?xml version="1.0"?>
<VTKFile type="UnstructuredGrid"  version="0.1"  >
<UnstructuredGrid>
<Piece  NumberOfPoints="101" NumberOfCells="100">
<Points>
<DataArray  type="Float64"  NumberOfComponents="3"  format="ascii">0 0 0  0.001 0 0  0.002 0 0  0.003 0 0  0.004 0 0  0.005 0 0  0.006000000000000001 0 0  0.007000000000000001 0 0  0.008 0 0  0.009000000000000001 0 0  0.01 0 0  0.011 0 0  0.012 0 0  0.013 0 0  0.014 0 0  0.015 0 0  0.016 0 0  0.017 0 0  0.018 0 0  0.019 0 0  0.02 0 0  0.021 0 0  0.022 0 0  0.023 0 0  0.024 0 0  0.025 0 0  0.026 0 0  0.027 0 0  0.028 0 0  0.029 0 0  0.03 0 0  0.031 0 0  0.032 0 0  0.033 0 0  0.034 0 0  0.035 0 0  0.036 0 0  0.03700000000000001 0 0  0.03800000000000001 0 0  0.03900000000000001 0 0  0.04 0 0  0.04100000000000001 0 0  0.042 0 0  0.043 0 0  0.044 0 0  0.045 0 0  0.04600000000000001 0 0  0.047 0 0  0.04800000000000001 0 0  0.049 0 0  0.05 0 0  0.051 0 0  0.052 0 0  0.05300000000000001 0 0  0.05400000000000001 0 0  0.055 0 0  0.05600000000000001 0 0  0.057 0 0  0.05800000000000001 0 0  0.059 0 0  0.06 0 0  0.06100000000000001 0 0  0.062 0 0  0.063 0 0  0.064 0 0  0.065 0 0  0.066 0 0  0.067 0 0  0.068 0 0  0.06900000000000001 0 0  0.07000000000000001 0 0  0.07100000000000001 0 0  0.07200000000000001 0 0  0.07300000000000001 0 0  0.07400000000000001 0 0  0.075 0 0  0.07600000000000001 0 0  0.077 0 0  0.07800000000000001 0 0  0.079 0 0  0.08 0 0  0.081 0 0  0.08200000000000002 0 0  0.083 0 0  0.08400000000000001 0 0  0.08500000000000001 0 0  0.08599999999999999 0 0  0.08700000000000001 0 0  0.08800000000000001 0 0  0.08900000000000001 0 0  0.09 0 0  0.091 0 0  0.09200000000000001 0 0  0.09300000000000001 0 0  0.094 0 0  0.095 0 0  0.09600000000000002 0 0  0.09700000000000002 0 0  0.098 0 0  0.099 0 0  0.1 0 0  </DataArray>
</Points>
<Cells>
<DataArray  type="UInt32"  Name="connectivity"  format="ascii">0 1  1 2  2 3  3 4  4 5  5 6  6 7  7 8  8 9  9 10  10 11  11 12  12 13  13 14  14 15  15 16  16 17  17 18  18 19  19 20  20 21  21 22  22 23  23 24  24 25  25 26  26 27  27 28  28 29  29 30  30 31  31 32  32 33  33 34  34 35  35 36  36 37  37 38  38 39  39 40  40 41  41 42  42 43  43 44  44 45  45 46  46 47  47 48  48 49  49 50  50 51  51 52  52 53  53 54  54 55  55 56  56 57  57 58  58 59  59 60  60 61  61 62  62 63  63 64  64 65  65 66  66 67  67 68  68 69  69 70  70 71  71 72  72 73  73 74  74 75  75 76  76 77  77 78  78 79  79 80  80 81  81 82  82 83  83 84  84 85  85 86  86 87  87 88  88 89  89 90  90 91  91 92  92 93  93 94  94 95  95 96  96 97  97 98  98 99  99 100  </DataArray>
<DataArray  type="UInt32"  Name="offsets"  format="ascii">2 4 6 8 10 12 14 16 18 20 22 24 26 28 30 32 34 36 38 40 42 44 46 48 50 52 54 56 58 60 62 64 66 68 70 72 74 76 78 80 82 84 86 88 90 92 94 96 98 100 102 104 106 108 110 112 114 116 118 120 122 124 126 128 130 132 134 136 138 140 142 144 146 148 150 152 154 156 158 160 162 164 166 168 170 172 174 176 178 180 182 184 186 188 190 192 194 196 198 200 </DataArray>
<DataArray  type="UInt8"  Name="types"  format="ascii">3 3 3 3 3 3 3 3 3 3 3 3 3 3 3 3 3 3 3 3 3 3 3 3 3 3 3 3 3 3 3 3 3 3 3 3 3 3 3 3 3 3 3 3 3 3 3 3 3 3 3 3 3 3 3 3 3 3 3 3 3 3 3 3 3 3 3 3 3 3 3 3 3 3 3 3 3 3 3 3 3 3 3 3 3 3 3 3 3 3 3 3 3 3 3 3 3 3 3 3 </DataArray>
</Cells>
<PointData  Scalars="f_14"> 
<DataArray  type="Float64"  Name="f_14"  format="ascii">1.0147955204214740e-04  1.0291628480923003e-04  1.0725805282912609e-04  1.1460003045514499e-04  1.2510239473809866e-04  1.3899266372033127e-04  1.5656898708173362e-04  1.7820440577954528e-04  2.0435210151510766e-04  2.3555166062507992e-04  2.7243638023251180e-04  3.1574164710282523e-04  3.6631442152719782e-04  4.2512385959499942e-04  4.9327310731014321e-04  5.7201229904487068e-04  6.6275279070004880e-04  7.6708265454619685e-04  8.8678345794970998e-04  1.0238483419441537e-03  1.1805014077939096e-03  1.3592184102327114e-03  1.5627487448702816e-03  1.7941387042885511e-03  2.0567559625545018e-03  2.3543152312401417e-03  2.6909050115661378e-03  3.0710153470062487e-03  3.4995664586678042e-03  3.9819381220955550e-03  4.5239996189658559e-03  5.1321400706181002e-03  5.8132989327251278e-03  6.5749964018920618e-03  7.4253634558956814e-03  8.3731712199818804e-03  9.4278593225180733e-03  1.0599562874786004e-02  1.1899137682273563e-02  1.3338183268995232e-02  1.4929063272685299e-02  1.6684922747739840e-02  1.8619701895125112e-02  2.0748145724729675e-02  2.3085809146421391e-02  2.5649056981984816e-02  2.8455058391741901e-02  3.1521775217553560e-02  3.4867943758578775e-02  3.8513049518081363e-02  4.2477294489121069e-02  4.6781556584440824e-02  5.1447340861490255e-02  5.6496722247402001e-02  6.1952279530855421e-02  6.7837020457978098e-02  7.4174297847469886e-02  8.0987716725563291e-02  8.8301032573691332e-02  9.6138040880083070e-02  1.0452245829009647e-01  1.1347779575787946e-01  1.2302722421278703e-01  1.3319343336656531e-01  1.4399848440023003e-01  1.5546365738131540e-01  1.6760929437112945e-01  1.8045463928617453e-01  1.9401767567627051e-01  2.0831496367243535e-01  2.2336147743853990e-01  2.3917044453050695e-01  2.5575318862378976e-01  2.7311897711258182e-01  2.9127487511133993e-01  3.1022560739959065e-01  3.2997342984367045e-01  3.5051801180327297e-01  3.7185633098596965e-01  3.9398258214894905e-01  4.1688810096421725e-01  4.4056130426165480e-01  4.6498764774438117e-01  4.9014960213367792e-01  5.1602664854757574e-01  5.4259529374956994e-01  5.6982910572363954e-01  5.9769876984078640e-01  6.2617216568295242e-01  6.5521446438489084e-01  6.8478824614586875e-01  7.1485363735377883e-01  7.4536846655701372e-01  7.7628843831720118e-01  8.0756732378132334e-01  8.3915716662760831e-01  8.7100850286849141e-01  9.0307059283833147e-01  9.3529166355567639e-01  9.6761915953173228e-01  1.0000000000000000e+00  </DataArray> 
</PointData> 
</Piece>
</UnstructuredGrid>
</VTKFile>