<?xml version="1.0"?>
<VTKFile type="UnstructuredGrid"  version="0.1"  >
<UnstructuredGrid>
<Piece  NumberOfPoints="101" NumberOfCells="100">
<Points>
<DataArray  type="Float64"  NumberOfComponents="3"  format="ascii">0 0 0  0.001 0 0  0.002 0 0  0.003 0 0  0.004 0 0  0.005 0 0  0.006000000000000001 0 0  0.007000000000000001 0 0  0.008 0 0  0.009000000000000001 0 0  0.01 0 0  0.011 0 0  0.012 0 0  0.013 0 0  0.014 0 0  0.015 0 0  0.016 0 0  0.017 0 0  0.018 0 0  0.019 0 0  0.02 0 0  0.021 0 0  0.022 0 0  0.023 0 0  0.024 0 0  0.025 0 0  0.026 0 0  0.027 0 0  0.028 0 0  0.029 0 0  0.03 0 0  0.031 0 0  0.032 0 0  0.033 0 0  0.034 0 0  0.035 0 0  0.036 0 0  0.03700000000000001 0 0  0.03800000000000001 0 0  0.03900000000000001 0 0  0.04 0 0  0.04100000000000001 0 0  0.042 0 0  0.043 0 0  0.044 0 0  0.045 0 0  0.04600000000000001 0 0  0.047 0 0  0.04800000000000001 0 0  0.049 0 0  0.05 0 0  0.051 0 0  0.052 0 0  0.05300000000000001 0 0  0.05400000000000001 0 0  0.055 0 0  0.05600000000000001 0 0  0.057 0 0  0.05800000000000001 0 0  0.059 0 0  0.06 0 0  0.06100000000000001 0 0  0.062 0 0  0.063 0 0  0.064 0 0  0.065 0 0  0.066 0 0  0.067 0 0  0.068 0 0  0.06900000000000001 0 0  0.07000000000000001 0 0  0.07100000000000001 0 0  0.07200000000000001 0 0  0.07300000000000001 0 0  0.07400000000000001 0 0  0.075 0 0  0.07600000000000001 0 0  0.077 0 0  0.07800000000000001 0 0  0.079 0 0  0.08 0 0  0.081 0 0  0.08200000000000002 0 0  0.083 0 0  0.08400000000000001 0 0  0.08500000000000001 0 0  0.08599999999999999 0 0  0.08700000000000001 0 0  0.08800000000000001 0 0  0.08900000000000001 0 0  0.09 0 0  0.091 0 0  0.09200000000000001 0 0  0.09300000000000001 0 0  0.094 0 0  0.095 0 0  0.09600000000000002 0 0  0.09700000000000002 0 0  0.098 0 0  0.099 0 0  0.1 0 0  </DataArray>
</Points>
<Cells>
<DataArray  type="UInt32"  Name="connectivity"  format="ascii">0 1  1 2  2 3  3 4  4 5  5 6  6 7  7 8  8 9  9 10  10 11  11 12  12 13  13 14  14 15  15 16  16 17  17 18  18 19  19 20  20 21  21 22  22 23  23 24  24 25  25 26  26 27  27 28  28 29  29 30  30 31  31 32  32 33  33 34  34 35  35 36  36 37  37 38  38 39  39 40  40 41  41 42  42 43  43 44  44 45  45 46  46 47  47 48  48 49  49 50  50 51  51 52  52 53  53 54  54 55  55 56  56 57  57 58  58 59  59 60  60 61  61 62  62 63  63 64  64 65  65 66  66 67  67 68  68 69  69 70  70 71  71 72  72 73  73 74  74 75  75 76  76 77  77 78  78 79  79 80  80 81  81 82  82 83  83 84  84 85  85 86  86 87  87 88  88 89  89 90  90 91  91 92  92 93  93 94  94 95  95 96  96 97  97 98  98 99  99 100  </DataArray>
<DataArray  type="UInt32"  Name="offsets"  format="ascii">2 4 6 8 10 12 14 16 18 20 22 24 26 28 30 32 34 36 38 40 42 44 46 48 50 52 54 56 58 60 62 64 66 68 70 72 74 76 78 80 82 84 86 88 90 92 94 96 98 100 102 104 106 108 110 112 114 116 118 120 122 124 126 128 130 132 134 136 138 140 142 144 146 148 150 152 154 156 158 160 162 164 166 168 170 172 174 176 178 180 182 184 186 188 190 192 194 196 198 200 </DataArray>
<DataArray  type="UInt8"  Name="types"  format="ascii">3 3 3 3 3 3 3 3 3 3 3 3 3 3 3 3 3 3 3 3 3 3 3 3 3 3 3 3 3 3 3 3 3 3 3 3 3 3 3 3 3 3 3 3 3 3 3 3 3 3 3 3 3 3 3 3 3 3 3 3 3 3 3 3 3 3 3 3 3 3 3 3 3 3 3 3 3 3 3 3 3 3 3 3 3 3 3 3 3 3 3 3 3 3 3 3 3 3 3 3 </DataArray>
</Cells>
<PointData  Scalars="f_14"> 
<DataArray  type="Float64"  Name="f_14"  format="ascii">2.4776380430446859e-04  2.5060558015004187e-04  2.5917992605778217e-04  2.7363441912568715e-04  2.9421676190720175e-04  3.2127739615644285e-04  3.5527316721985057e-04  3.9677204382246360e-04  4.4645889878371428e-04  5.0514235655993044e-04  5.7376271335791897e-04  6.5340093480772466e-04  7.4528873473767834e-04  8.5081973637969772e-04  9.7156171427074760e-04  1.1092699111362964e-03  1.2659014190792299e-03  1.4436306083966139e-03  1.6448655802599342e-03  1.8722656112855477e-03  2.1287595486669201e-03  2.4175651040282938e-03  2.7422089824955514e-03  3.1065477706859177e-03  3.5147894934338705e-03  3.9715157341561830e-03  4.4817041978957662e-03  5.0507515793755285e-03  5.6844965809673114e-03  6.3892429074883577e-03  7.1717820463553369e-03  8.0394156230546784e-03  8.9999771033536461e-03  1.0061852595429336e-02  1.1234000487404560e-02  1.2525969638944503e-02  1.3947915829898457e-02  1.5510616154795293e-02  1.7225481039661244e-02  1.9104563547474137e-02  2.1160565630954135e-02  2.3406840986671434e-02  2.5857394162973696e-02  2.8526875576338005e-02  3.1430572096748197e-02  3.4584392872885478e-02  3.8004850082557169e-02  4.1709034313095576e-02  4.5714584300621794e-02  5.0039650786199867e-02  5.4702854281087523e-02  5.9723236572506277e-02  6.5120205845554183e-02  7.0913475345913690e-02  7.7122995561652710e-02  8.3768879960374507e-02  9.0871324379857260e-02  9.8450520235668942e-02  1.0652656177750471e-01  1.1511934769652934e-01  1.2424847745813523e-01  1.3393314280744478e-01  1.4419201496778566e-01  1.5504312812434018e-01  1.6650375985527993e-01  1.7859030923999575e-01  1.9131817343750698e-01  2.0470162358681104e-01  2.1875368093382014e-01  2.3348599413566765e-01  2.4890871873163384e-01  2.6503039979987586e-01  2.8185785883975462e-01  2.9939608593013650e-01  3.1764813821399990e-01  3.3661504574851991e-01  3.5629572573718132e-01  3.7668690612616207e-01  3.9778305950119586e-01  4.1957634816340295e-01  4.4205658119351110e-01  4.6521118423379115e-01  4.8902518262658579e-01  5.1348119844817530e-01  5.3855946186785941e-01  5.6423783714553333e-01  5.9049186345792526e-01  6.1729481061529878e-01  6.4461774959822338e-01  6.7242963770951558e-01  7.0069741800110219e-01  7.2938613250108963e-01  7.5845904863425329e-01  7.8787779810116620e-01  8.1760252735885752e-01  8.4759205873073107e-01  8.7780406106700670e-01  9.0819522878051229e-01  9.3872146799749479e-01  9.6933808849037850e-01  1.0000000000000000e+00  </DataArray> 
</PointData> 
</Piece>
</UnstructuredGrid>
</VTKFile>