<?xml version="1.0"?>
<VTKFile type="UnstructuredGrid"  version="0.1"  >
<UnstructuredGrid>
<Piece  NumberOfPoints="101" NumberOfCells="100">
<Points>
<DataArray  type="Float64"  NumberOfComponents="3"  format="ascii">0 0 0  0.001 0 0  0.002 0 0  0.003 0 0  0.004 0 0  0.005 0 0  0.006000000000000001 0 0  0.007000000000000001 0 0  0.008 0 0  0.009000000000000001 0 0  0.01 0 0  0.011 0 0  0.012 0 0  0.013 0 0  0.014 0 0  0.015 0 0  0.016 0 0  0.017 0 0  0.018 0 0  0.019 0 0  0.02 0 0  0.021 0 0  0.022 0 0  0.023 0 0  0.024 0 0  0.025 0 0  0.026 0 0  0.027 0 0  0.028 0 0  0.029 0 0  0.03 0 0  0.031 0 0  0.032 0 0  0.033 0 0  0.034 0 0  0.035 0 0  0.036 0 0  0.03700000000000001 0 0  0.03800000000000001 0 0  0.03900000000000001 0 0  0.04 0 0  0.04100000000000001 0 0  0.042 0 0  0.043 0 0  0.044 0 0  0.045 0 0  0.04600000000000001 0 0  0.047 0 0  0.04800000000000001 0 0  0.049 0 0  0.05 0 0  0.051 0 0  0.052 0 0  0.05300000000000001 0 0  0.05400000000000001 0 0  0.055 0 0  0.05600000000000001 0 0  0.057 0 0  0.05800000000000001 0 0  0.059 0 0  0.06 0 0  0.06100000000000001 0 0  0.062 0 0  0.063 0 0  0.064 0 0  0.065 0 0  0.066 0 0  0.067 0 0  0.068 0 0  0.06900000000000001 0 0  0.07000000000000001 0 0  0.07100000000000001 0 0  0.07200000000000001 0 0  0.07300000000000001 0 0  0.07400000000000001 0 0  0.075 0 0  0.07600000000000001 0 0  0.077 0 0  0.07800000000000001 0 0  0.079 0 0  0.08 0 0  0.081 0 0  0.08200000000000002 0 0  0.083 0 0  0.08400000000000001 0 0  0.08500000000000001 0 0  0.08599999999999999 0 0  0.08700000000000001 0 0  0.08800000000000001 0 0  0.08900000000000001 0 0  0.09 0 0  0.091 0 0  0.09200000000000001 0 0  0.09300000000000001 0 0  0.094 0 0  0.095 0 0  0.09600000000000002 0 0  0.09700000000000002 0 0  0.098 0 0  0.099 0 0  0.1 0 0  </DataArray>
</Points>
<Cells>
<DataArray  type="UInt32"  Name="connectivity"  format="ascii">0 1  1 2  2 3  3 4  4 5  5 6  6 7  7 8  8 9  9 10  10 11  11 12  12 13  13 14  14 15  15 16  16 17  17 18  18 19  19 20  20 21  21 22  22 23  23 24  24 25  25 26  26 27  27 28  28 29  29 30  30 31  31 32  32 33  33 34  34 35  35 36  36 37  37 38  38 39  39 40  40 41  41 42  42 43  43 44  44 45  45 46  46 47  47 48  48 49  49 50  50 51  51 52  52 53  53 54  54 55  55 56  56 57  57 58  58 59  59 60  60 61  61 62  62 63  63 64  64 65  65 66  66 67  67 68  68 69  69 70  70 71  71 72  72 73  73 74  74 75  75 76  76 77  77 78  78 79  79 80  80 81  81 82  82 83  83 84  84 85  85 86  86 87  87 88  88 89  89 90  90 91  91 92  92 93  93 94  94 95  95 96  96 97  97 98  98 99  99 100  </DataArray>
<DataArray  type="UInt32"  Name="offsets"  format="ascii">2 4 6 8 10 12 14 16 18 20 22 24 26 28 30 32 34 36 38 40 42 44 46 48 50 52 54 56 58 60 62 64 66 68 70 72 74 76 78 80 82 84 86 88 90 92 94 96 98 100 102 104 106 108 110 112 114 116 118 120 122 124 126 128 130 132 134 136 138 140 142 144 146 148 150 152 154 156 158 160 162 164 166 168 170 172 174 176 178 180 182 184 186 188 190 192 194 196 198 200 </DataArray>
<DataArray  type="UInt8"  Name="types"  format="ascii">3 3 3 3 3 3 3 3 3 3 3 3 3 3 3 3 3 3 3 3 3 3 3 3 3 3 3 3 3 3 3 3 3 3 3 3 3 3 3 3 3 3 3 3 3 3 3 3 3 3 3 3 3 3 3 3 3 3 3 3 3 3 3 3 3 3 3 3 3 3 3 3 3 3 3 3 3 3 3 3 3 3 3 3 3 3 3 3 3 3 3 3 3 3 3 3 3 3 3 3 </DataArray>
</Cells>
<PointData  Scalars="f_14"> 
<DataArray  type="Float64"  Name="f_14"  format="ascii">1.0021422307957223e-08  1.0611039053031521e-08  1.2441678939746326e-08  1.5704338113908334e-08  2.0736529111239114e-08  2.8052583772477027e-08  3.8389218511367823e-08  5.2769721911668882e-08  7.2591406391774478e-08  9.9742504939430209e-08  1.3675656596342493e-07  1.8701469032748774e-07  2.5500876372420112e-07  3.4668227864122415e-07  4.6986954379983150e-07  6.3485919377545680e-07  8.5511410550963347e-07  1.1481872894863735e-06  1.5368822591853221e-06  2.0507170194874172e-06  2.7277633958537171e-06  3.6169482067058794e-06  4.7809200236332322e-06  6.2996052286744471e-06  8.2746000138726433e-06  1.0834571098930897e-05  1.4141867449000150e-05  1.8400578274435545e-05  2.3866309118799708e-05  3.0857987806735632e-05  3.9772055199772079e-05  5.1099441685392294e-05  6.5445778475269932e-05  8.3555342229516517e-05  1.0633928107855796e-04  1.3490871827639213e-04  1.7061337461967961e-04  2.1508639014952176e-04  2.7029605685580934e-04  3.3860519405919559e-04  4.2283890339043649e-04  5.2636142699775165e-04  6.5316279666314387e-04  8.0795589855223800e-04  9.9628448390761282e-04  1.2246425257121441e-03  1.5006051510044912e-03  1.8329711643608488e-03  2.2319169169727378e-03  2.7091609655910055e-03  3.2781386054333834e-03  3.9541849515401404e-03  4.7547247863914425e-03  5.6994668923341044e-03  6.8106000522999898e-03  8.1129873407567808e-03  9.6343547507986571e-03  1.1405469627450687e-02  1.3460303818968336e-02  1.5836175936972816e-02  1.8573866654651518e-02  2.1717700593644734e-02  2.5315588079425098e-02  2.9419019907093686e-02  3.4083008279184764e-02  3.9365967277392763e-02  4.5329526631589158e-02  5.2038273168822854e-02  5.9559415174010838e-02  6.7962365978516986e-02  7.7318244411514248e-02  8.7699291292721679e-02  9.9178202895989248e-02  1.1182738424444789e-01  1.2571812717363151e-01  1.4091972027436400e-01  1.5749850004937258e-01  1.7551685482649840e-01  1.9503219510136130e-01  2.1609590596382566e-01  2.3875229902450570e-01  2.6303758272932443e-01  2.8897887106487630e-01  3.1659325135403438e-01  3.4588693206783244e-01  3.7685449129531851e-01  4.0947824569078434e-01  4.4372775834592321e-01  4.7955950211858950e-01  5.1691669251329164e-01  5.5572930129270270e-01  5.9591425866340342e-01  6.3737584819804227e-01  6.8000629471996954e-01  7.2368654128675891e-01  7.6828720727630262e-01  8.1366971551885314e-01  8.5968757254720896e-01  9.0618778246904730e-01  9.5301237180705034e-01  1.0000000000000000e+00  </DataArray> 
</PointData> 
</Piece>
</UnstructuredGrid>
</VTKFile>