<?xml version="1.0"?>
<VTKFile type="UnstructuredGrid"  version="0.1"  >
<UnstructuredGrid>
<Piece  NumberOfPoints="101" NumberOfCells="100">
<Points>
<DataArray  type="Float64"  NumberOfComponents="3"  format="ascii">0 0 0  0.001 0 0  0.002 0 0  0.003 0 0  0.004 0 0  0.005 0 0  0.006000000000000001 0 0  0.007000000000000001 0 0  0.008 0 0  0.009000000000000001 0 0  0.01 0 0  0.011 0 0  0.012 0 0  0.013 0 0  0.014 0 0  0.015 0 0  0.016 0 0  0.017 0 0  0.018 0 0  0.019 0 0  0.02 0 0  0.021 0 0  0.022 0 0  0.023 0 0  0.024 0 0  0.025 0 0  0.026 0 0  0.027 0 0  0.028 0 0  0.029 0 0  0.03 0 0  0.031 0 0  0.032 0 0  0.033 0 0  0.034 0 0  0.035 0 0  0.036 0 0  0.03700000000000001 0 0  0.03800000000000001 0 0  0.03900000000000001 0 0  0.04 0 0  0.04100000000000001 0 0  0.042 0 0  0.043 0 0  0.044 0 0  0.045 0 0  0.04600000000000001 0 0  0.047 0 0  0.04800000000000001 0 0  0.049 0 0  0.05 0 0  0.051 0 0  0.052 0 0  0.05300000000000001 0 0  0.05400000000000001 0 0  0.055 0 0  0.05600000000000001 0 0  0.057 0 0  0.05800000000000001 0 0  0.059 0 0  0.06 0 0  0.06100000000000001 0 0  0.062 0 0  0.063 0 0  0.064 0 0  0.065 0 0  0.066 0 0  0.067 0 0  0.068 0 0  0.06900000000000001 0 0  0.07000000000000001 0 0  0.07100000000000001 0 0  0.07200000000000001 0 0  0.07300000000000001 0 0  0.07400000000000001 0 0  0.075 0 0  0.07600000000000001 0 0  0.077 0 0  0.07800000000000001 0 0  0.079 0 0  0.08 0 0  0.081 0 0  0.08200000000000002 0 0  0.083 0 0  0.08400000000000001 0 0  0.08500000000000001 0 0  0.08599999999999999 0 0  0.08700000000000001 0 0  0.08800000000000001 0 0  0.08900000000000001 0 0  0.09 0 0  0.091 0 0  0.09200000000000001 0 0  0.09300000000000001 0 0  0.094 0 0  0.095 0 0  0.09600000000000002 0 0  0.09700000000000002 0 0  0.098 0 0  0.099 0 0  0.1 0 0  </DataArray>
</Points>
<Cells>
<DataArray  type="UInt32"  Name="connectivity"  format="ascii">0 1  1 2  2 3  3 4  4 5  5 6  6 7  7 8  8 9  9 10  10 11  11 12  12 13  13 14  14 15  15 16  16 17  17 18  18 19  19 20  20 21  21 22  22 23  23 24  24 25  25 26  26 27  27 28  28 29  29 30  30 31  31 32  32 33  33 34  34 35  35 36  36 37  37 38  38 39  39 40  40 41  41 42  42 43  43 44  44 45  45 46  46 47  47 48  48 49  49 50  50 51  51 52  52 53  53 54  54 55  55 56  56 57  57 58  58 59  59 60  60 61  61 62  62 63  63 64  64 65  65 66  66 67  67 68  68 69  69 70  70 71  71 72  72 73  73 74  74 75  75 76  76 77  77 78  78 79  79 80  80 81  81 82  82 83  83 84  84 85  85 86  86 87  87 88  88 89  89 90  90 91  91 92  92 93  93 94  94 95  95 96  96 97  97 98  98 99  99 100  </DataArray>
<DataArray  type="UInt32"  Name="offsets"  format="ascii">2 4 6 8 10 12 14 16 18 20 22 24 26 28 30 32 34 36 38 40 42 44 46 48 50 52 54 56 58 60 62 64 66 68 70 72 74 76 78 80 82 84 86 88 90 92 94 96 98 100 102 104 106 108 110 112 114 116 118 120 122 124 126 128 130 132 134 136 138 140 142 144 146 148 150 152 154 156 158 160 162 164 166 168 170 172 174 176 178 180 182 184 186 188 190 192 194 196 198 200 </DataArray>
<DataArray  type="UInt8"  Name="types"  format="ascii">3 3 3 3 3 3 3 3 3 3 3 3 3 3 3 3 3 3 3 3 3 3 3 3 3 3 3 3 3 3 3 3 3 3 3 3 3 3 3 3 3 3 3 3 3 3 3 3 3 3 3 3 3 3 3 3 3 3 3 3 3 3 3 3 3 3 3 3 3 3 3 3 3 3 3 3 3 3 3 3 3 3 3 3 3 3 3 3 3 3 3 3 3 3 3 3 3 3 3 3 </DataArray>
</Cells>
<PointData  Scalars="f_14"> 
<DataArray  type="Float64"  Name="f_14"  format="ascii">3.0217183520777496e-09  3.2237012018113158e-09  3.8538906282560240e-09  4.9875664535489974e-09  6.7589485825207262e-09  9.3751473653850327e-09  1.3137394757885137e-08  1.8471401308930560e-08  2.5969425552421368e-08  3.6447559157473243e-08  5.1022878540026657e-08  7.1216557219004143e-08  9.9090851257781202e-08  1.3743015590213822e-07  1.8997919574709360e-07  2.6175498424800532e-07  3.5945362456334628e-07  4.9197850101709890e-07  6.7112313443358746e-07  9.1245017941698729e-07  1.2364179909295981e-06  1.6698181739317892e-06  2.2476018732282396e-06  3.0151896042058239e-06  4.0313795290598190e-06  5.3719926152846882e-06  7.1344204362902314e-06  9.4432728282322615e-06  1.2457358498478475e-05  1.6378272214135406e-05  2.1460907504238055e-05  2.8026263864541459e-05  3.6476972050763430e-05  4.7316019740165752e-05  6.1169221898595280e-05  7.8812044530535391e-05  1.0120145562964108e-04  1.2951354114319546e-04  1.6518768416152362e-04  2.0997815933485159e-04  2.6601403811529707e-04  3.3586832963785463e-04  4.2263729212988930e-04  5.3003083537774909e-04  6.6247489023091028e-04  8.2522654030499050e-04  1.0245025877055540e-03  1.2676220525363890e-03  1.5631628792991635e-03  1.9211328367911020e-03  2.3531542475186420e-03  2.8726617651224306e-03  3.4951119328398604e-03  4.2382027038757198e-03  5.1221004896832610e-03  6.1696716316714780e-03  7.4067144763214085e-03  8.8621874874350269e-03  1.0568428070484491e-02  1.2561356034928353e-02  1.4880654906840738e-02  1.7569923655594764e-02  2.0676790846846805e-02  2.4252982813926335e-02  2.8354337186222916e-02  3.3040753061348890e-02  3.8376069291157458e-02  4.4427862800291616e-02  5.1267159595058467e-02  5.8968052168608419e-02  6.7607218375792158e-02  7.7263338537831530e-02  8.8016409531878129e-02  9.9946956900037021e-02  1.1313514853981875e-01  1.2765981626331899e-01  1.4359739437291297e-01  1.6102078732218936e-01  1.7999818142729038e-01  2.0059181837268009e-01  2.2285675081843229e-01  2.4683960266308369e-01  2.7257735834861058e-01  3.0009620691939831e-01  3.2941046728247458e-01  3.6052162119281050e-01  3.9341747985398945e-01  4.2807150865066124e-01  4.6444233240824789e-01  5.0247344072611477e-01  5.4209310939775357e-01  5.8321454978663190e-01  6.2573629336502312e-01  6.6954281356361889e-01  7.1450538175914546e-01  7.6048314879716505e-01  8.0732443806863563e-01  8.5486823099600318e-01  9.0294582099935139e-01  9.5138260775838945e-01  1.0000000000000000e+00  </DataArray> 
</PointData> 
</Piece>
</UnstructuredGrid>
</VTKFile>