<?xml version="1.0"?>
<VTKFile type="UnstructuredGrid"  version="0.1"  >
<UnstructuredGrid>
<Piece  NumberOfPoints="101" NumberOfCells="100">
<Points>
<DataArray  type="Float64"  NumberOfComponents="3"  format="ascii">0 0 0  0.001 0 0  0.002 0 0  0.003 0 0  0.004 0 0  0.005 0 0  0.006000000000000001 0 0  0.007000000000000001 0 0  0.008 0 0  0.009000000000000001 0 0  0.01 0 0  0.011 0 0  0.012 0 0  0.013 0 0  0.014 0 0  0.015 0 0  0.016 0 0  0.017 0 0  0.018 0 0  0.019 0 0  0.02 0 0  0.021 0 0  0.022 0 0  0.023 0 0  0.024 0 0  0.025 0 0  0.026 0 0  0.027 0 0  0.028 0 0  0.029 0 0  0.03 0 0  0.031 0 0  0.032 0 0  0.033 0 0  0.034 0 0  0.035 0 0  0.036 0 0  0.03700000000000001 0 0  0.03800000000000001 0 0  0.03900000000000001 0 0  0.04 0 0  0.04100000000000001 0 0  0.042 0 0  0.043 0 0  0.044 0 0  0.045 0 0  0.04600000000000001 0 0  0.047 0 0  0.04800000000000001 0 0  0.049 0 0  0.05 0 0  0.051 0 0  0.052 0 0  0.05300000000000001 0 0  0.05400000000000001 0 0  0.055 0 0  0.05600000000000001 0 0  0.057 0 0  0.05800000000000001 0 0  0.059 0 0  0.06 0 0  0.06100000000000001 0 0  0.062 0 0  0.063 0 0  0.064 0 0  0.065 0 0  0.066 0 0  0.067 0 0  0.068 0 0  0.06900000000000001 0 0  0.07000000000000001 0 0  0.07100000000000001 0 0  0.07200000000000001 0 0  0.07300000000000001 0 0  0.07400000000000001 0 0  0.075 0 0  0.07600000000000001 0 0  0.077 0 0  0.07800000000000001 0 0  0.079 0 0  0.08 0 0  0.081 0 0  0.08200000000000002 0 0  0.083 0 0  0.08400000000000001 0 0  0.08500000000000001 0 0  0.08599999999999999 0 0  0.08700000000000001 0 0  0.08800000000000001 0 0  0.08900000000000001 0 0  0.09 0 0  0.091 0 0  0.09200000000000001 0 0  0.09300000000000001 0 0  0.094 0 0  0.095 0 0  0.09600000000000002 0 0  0.09700000000000002 0 0  0.098 0 0  0.099 0 0  0.1 0 0  </DataArray>
</Points>
<Cells>
<DataArray  type="UInt32"  Name="connectivity"  format="ascii">0 1  1 2  2 3  3 4  4 5  5 6  6 7  7 8  8 9  9 10  10 11  11 12  12 13  13 14  14 15  15 16  16 17  17 18  18 19  19 20  20 21  21 22  22 23  23 24  24 25  25 26  26 27  27 28  28 29  29 30  30 31  31 32  32 33  33 34  34 35  35 36  36 37  37 38  38 39  39 40  40 41  41 42  42 43  43 44  44 45  45 46  46 47  47 48  48 49  49 50  50 51  51 52  52 53  53 54  54 55  55 56  56 57  57 58  58 59  59 60  60 61  61 62  62 63  63 64  64 65  65 66  66 67  67 68  68 69  69 70  70 71  71 72  72 73  73 74  74 75  75 76  76 77  77 78  78 79  79 80  80 81  81 82  82 83  83 84  84 85  85 86  86 87  87 88  88 89  89 90  90 91  91 92  92 93  93 94  94 95  95 96  96 97  97 98  98 99  99 100  </DataArray>
<DataArray  type="UInt32"  Name="offsets"  format="ascii">2 4 6 8 10 12 14 16 18 20 22 24 26 28 30 32 34 36 38 40 42 44 46 48 50 52 54 56 58 60 62 64 66 68 70 72 74 76 78 80 82 84 86 88 90 92 94 96 98 100 102 104 106 108 110 112 114 116 118 120 122 124 126 128 130 132 134 136 138 140 142 144 146 148 150 152 154 156 158 160 162 164 166 168 170 172 174 176 178 180 182 184 186 188 190 192 194 196 198 200 </DataArray>
<DataArray  type="UInt8"  Name="types"  format="ascii">3 3 3 3 3 3 3 3 3 3 3 3 3 3 3 3 3 3 3 3 3 3 3 3 3 3 3 3 3 3 3 3 3 3 3 3 3 3 3 3 3 3 3 3 3 3 3 3 3 3 3 3 3 3 3 3 3 3 3 3 3 3 3 3 3 3 3 3 3 3 3 3 3 3 3 3 3 3 3 3 3 3 3 3 3 3 3 3 3 3 3 3 3 3 3 3 3 3 3 3 </DataArray>
</Cells>
<PointData  Scalars="f_14"> 
<DataArray  type="Float64"  Name="f_14"  format="ascii">4.4136873624252184e-44  9.4824352304429055e-44  3.6232206964452107e-43  1.4535143599292542e-42  5.8313028772758693e-42  2.3322843677724730e-41  9.2973483130226363e-41  3.6937332921358845e-40  1.4624187780171960e-39  5.7696329573577174e-39  2.2681115927319686e-38  8.8836035376736386e-38  3.4664923213261075e-37  1.3475177802834472e-36  5.2178049342943448e-36  2.0124037465201059e-35  7.7300117751743489e-35  2.9569615518317169e-34  1.1263497629277338e-33  4.2719223317893208e-33  1.6130769716631192e-32  6.0635423375792591e-32  2.2687879585711075e-31  8.4491455440978336e-31  3.1313877756375082e-30  1.1548308964995935e-29  4.2374850557307497e-29  1.5468755004648595e-28  5.6170387822777163e-28  2.0286639346219006e-27  7.2863051420693522e-27  2.6022032530073623e-26  9.2395704897920956e-26  3.2611975798619529e-25  1.1440714014620703e-24  3.9885363620586570e-24  1.3816237966641827e-23  4.7545661489966934e-23  1.6251870142652281e-22  5.5168486961053466e-22  1.8594962010788239e-21  6.2220629839702684e-21  2.0664450140945833e-20  6.8104537721307023e-20  2.2268974188173389e-19  7.2227445197809271e-19  2.3231895391237752e-18  7.4087727035978758e-18  2.3419752621356881e-17  7.3364175298657622e-17  2.2768727733456798e-16  6.9988968014375223e-16  2.1302732275297700e-15  6.4184510512989547e-15  1.9137448523257386e-14  5.6449693984760249e-14  1.6467316211520875e-13  4.7492228342033994e-13  1.3536622217665205e-12  3.8118012768908479e-12  1.0600368637563511e-11  2.9101500198406939e-11  7.8838908457103948e-11  2.1067736354348206e-10  5.5508878453293997e-10  1.4413968420629078e-09  3.6870955471692395e-09  9.2867137847794438e-09  2.3020126637003026e-08  5.6131490391557291e-08  1.3456687079403152e-07  3.1701252565294208e-07  7.3348312363725076e-07  1.6658778792308168e-06  3.7118896175750891e-06  8.1096392811428588e-06  1.7362620440973931e-05  3.6407149679498063e-05  7.4724832278917793e-05  1.5003728606514943e-04  2.9453698451050586e-04  5.6498914390768547e-04  1.0584195792431854e-03  1.9353415673874475e-03  3.4523339462651736e-03  6.0049344906926852e-03  1.0179893994101345e-02  1.6812582510574610e-02  2.7040794440839747e-02  4.2340965730411531e-02  6.4528235288147814e-02  9.5699892933418323e-02  1.3810488219920447e-01  1.9393194582123419e-01  2.6502585733595907e-01  3.5256255204207754e-01  4.5673466553708914e-01  5.7651203649426963e-01  7.0954057361261635e-01  8.5222415981755173e-01  1.0000000000000000e+00  </DataArray> 
</PointData> 
</Piece>
</UnstructuredGrid>
</VTKFile>