<?xml version="1.0"?>
<VTKFile type="UnstructuredGrid"  version="0.1"  >
<UnstructuredGrid>
<Piece  NumberOfPoints="101" NumberOfCells="100">
<Points>
<DataArray  type="Float64"  NumberOfComponents="3"  format="ascii">0 0 0  0.001 0 0  0.002 0 0  0.003 0 0  0.004 0 0  0.005 0 0  0.006000000000000001 0 0  0.007000000000000001 0 0  0.008 0 0  0.009000000000000001 0 0  0.01 0 0  0.011 0 0  0.012 0 0  0.013 0 0  0.014 0 0  0.015 0 0  0.016 0 0  0.017 0 0  0.018 0 0  0.019 0 0  0.02 0 0  0.021 0 0  0.022 0 0  0.023 0 0  0.024 0 0  0.025 0 0  0.026 0 0  0.027 0 0  0.028 0 0  0.029 0 0  0.03 0 0  0.031 0 0  0.032 0 0  0.033 0 0  0.034 0 0  0.035 0 0  0.036 0 0  0.03700000000000001 0 0  0.03800000000000001 0 0  0.03900000000000001 0 0  0.04 0 0  0.04100000000000001 0 0  0.042 0 0  0.043 0 0  0.044 0 0  0.045 0 0  0.04600000000000001 0 0  0.047 0 0  0.04800000000000001 0 0  0.049 0 0  0.05 0 0  0.051 0 0  0.052 0 0  0.05300000000000001 0 0  0.05400000000000001 0 0  0.055 0 0  0.05600000000000001 0 0  0.057 0 0  0.05800000000000001 0 0  0.059 0 0  0.06 0 0  0.06100000000000001 0 0  0.062 0 0  0.063 0 0  0.064 0 0  0.065 0 0  0.066 0 0  0.067 0 0  0.068 0 0  0.06900000000000001 0 0  0.07000000000000001 0 0  0.07100000000000001 0 0  0.07200000000000001 0 0  0.07300000000000001 0 0  0.07400000000000001 0 0  0.075 0 0  0.07600000000000001 0 0  0.077 0 0  0.07800000000000001 0 0  0.079 0 0  0.08 0 0  0.081 0 0  0.08200000000000002 0 0  0.083 0 0  0.08400000000000001 0 0  0.08500000000000001 0 0  0.08599999999999999 0 0  0.08700000000000001 0 0  0.08800000000000001 0 0  0.08900000000000001 0 0  0.09 0 0  0.091 0 0  0.09200000000000001 0 0  0.09300000000000001 0 0  0.094 0 0  0.095 0 0  0.09600000000000002 0 0  0.09700000000000002 0 0  0.098 0 0  0.099 0 0  0.1 0 0  </DataArray>
</Points>
<Cells>
<DataArray  type="UInt32"  Name="connectivity"  format="ascii">0 1  1 2  2 3  3 4  4 5  5 6  6 7  7 8  8 9  9 10  10 11  11 12  12 13  13 14  14 15  15 16  16 17  17 18  18 19  19 20  20 21  21 22  22 23  23 24  24 25  25 26  26 27  27 28  28 29  29 30  30 31  31 32  32 33  33 34  34 35  35 36  36 37  37 38  38 39  39 40  40 41  41 42  42 43  43 44  44 45  45 46  46 47  47 48  48 49  49 50  50 51  51 52  52 53  53 54  54 55  55 56  56 57  57 58  58 59  59 60  60 61  61 62  62 63  63 64  64 65  65 66  66 67  67 68  68 69  69 70  70 71  71 72  72 73  73 74  74 75  75 76  76 77  77 78  78 79  79 80  80 81  81 82  82 83  83 84  84 85  85 86  86 87  87 88  88 89  89 90  90 91  91 92  92 93  93 94  94 95  95 96  96 97  97 98  98 99  99 100  </DataArray>
<DataArray  type="UInt32"  Name="offsets"  format="ascii">2 4 6 8 10 12 14 16 18 20 22 24 26 28 30 32 34 36 38 40 42 44 46 48 50 52 54 56 58 60 62 64 66 68 70 72 74 76 78 80 82 84 86 88 90 92 94 96 98 100 102 104 106 108 110 112 114 116 118 120 122 124 126 128 130 132 134 136 138 140 142 144 146 148 150 152 154 156 158 160 162 164 166 168 170 172 174 176 178 180 182 184 186 188 190 192 194 196 198 200 </DataArray>
<DataArray  type="UInt8"  Name="types"  format="ascii">3 3 3 3 3 3 3 3 3 3 3 3 3 3 3 3 3 3 3 3 3 3 3 3 3 3 3 3 3 3 3 3 3 3 3 3 3 3 3 3 3 3 3 3 3 3 3 3 3 3 3 3 3 3 3 3 3 3 3 3 3 3 3 3 3 3 3 3 3 3 3 3 3 3 3 3 3 3 3 3 3 3 3 3 3 3 3 3 3 3 3 3 3 3 3 3 3 3 3 3 </DataArray>
</Cells>
<PointData  Scalars="f_14"> 
<DataArray  type="Float64"  Name="f_14"  format="ascii">4.4893588362034798e-08  4.7116408154844519e-08  5.3978631011013931e-08  6.6075975293125391e-08  8.4450270540344067e-08  1.1066599826854947e-07  1.4692377386766394e-07  1.9621742426239955e-07  2.6254369693798590e-07  3.5117639096470010e-07  4.6901992852296746e-07  6.2506119365530386e-07  8.3094297086309034e-07  1.1016876474701744e-06  1.4566061387467008e-06  1.9204344021730492e-06  2.5247485845121871e-06  3.3097199571261327e-06  4.3262825096666754e-06  5.6387995578363486e-06  7.3283311389757446e-06  9.4966214676421102e-06  1.2270945426944497e-05  1.5809975070846518e-05  2.0310851451193561e-05  2.6017673741461349e-05  3.3231646507821034e-05  4.2323156878705997e-05  5.3746085968609052e-05  6.8054692760886900e-05  8.5923443124852320e-05  1.0817019092589085e-04  1.3578315126932297e-04  1.6995213656105745e-04  2.1210455279494999e-04  2.6394667456670922e-04  3.2751073079929260e-04  4.0520833683941460e-04  4.9989080002572146e-04  6.1491680242841610e-04  7.5422792347313997e-04  9.2243240377209968e-04  1.1248974668858413e-03  1.3678504052326696e-03  1.6584884974793455e-03  2.0050976553787330e-03  2.4171794965705154e-03  2.9055863054052058e-03  3.4826630763061628e-03  4.1623955344752862e-03  4.9605626989810110e-03  5.8948921968744556e-03  6.9852161588589050e-03  8.2536251336470211e-03  9.7246170575633339e-03  1.1425237917903612e-02  1.3385210364349604e-02  1.5637046165125804e-02  1.8216138087619044e-02  2.1160826521903760e-02  2.4512435975726009e-02  2.8315276466901115e-02  3.2616604839399488e-02  3.7466541147384187e-02  4.2917935500389248e-02  4.9026181153819501e-02  5.5848970170312942e-02  6.3445988674085019e-02  7.1878549572931272e-02  8.1209161627246701e-02  9.1501034893317207e-02  1.0281752384498878e-01  1.1522151086386184e-01  1.2877473425818692e-01  1.4353706649425049e-01  1.5956574986610791e-01  1.7691459835088613e-01  1.9563317585523868e-01  2.1576596240961923e-01  2.3735152106574448e-01  2.6042167925468496e-01  2.8500073912622509e-01  3.1110473187622162e-01  3.3874073124456711e-01  3.6790624120590348e-01  3.9858867236031337e-01  4.3076492065314143e-01  4.6440106081317561e-01  4.9945216530877456e-01  5.3586225770519158e-01  5.7356440709698686e-01  6.1248096783106742e-01  6.5252396608160101e-01  6.9359563204892205e-01  7.3558907369777826e-01  7.7838908509741500e-01  8.2187307965067946e-01  8.6591213587497329e-01  9.1037214099530395e-01  9.5511501549483380e-01  1.0000000000000000e+00  </DataArray> 
</PointData> 
</Piece>
</UnstructuredGrid>
</VTKFile>