<?xml version="1.0"?>
<VTKFile type="UnstructuredGrid"  version="0.1"  >
<UnstructuredGrid>
<Piece  NumberOfPoints="101" NumberOfCells="100">
<Points>
<DataArray  type="Float64"  NumberOfComponents="3"  format="ascii">0 0 0  0.001 0 0  0.002 0 0  0.003 0 0  0.004 0 0  0.005 0 0  0.006000000000000001 0 0  0.007000000000000001 0 0  0.008 0 0  0.009000000000000001 0 0  0.01 0 0  0.011 0 0  0.012 0 0  0.013 0 0  0.014 0 0  0.015 0 0  0.016 0 0  0.017 0 0  0.018 0 0  0.019 0 0  0.02 0 0  0.021 0 0  0.022 0 0  0.023 0 0  0.024 0 0  0.025 0 0  0.026 0 0  0.027 0 0  0.028 0 0  0.029 0 0  0.03 0 0  0.031 0 0  0.032 0 0  0.033 0 0  0.034 0 0  0.035 0 0  0.036 0 0  0.03700000000000001 0 0  0.03800000000000001 0 0  0.03900000000000001 0 0  0.04 0 0  0.04100000000000001 0 0  0.042 0 0  0.043 0 0  0.044 0 0  0.045 0 0  0.04600000000000001 0 0  0.047 0 0  0.04800000000000001 0 0  0.049 0 0  0.05 0 0  0.051 0 0  0.052 0 0  0.05300000000000001 0 0  0.05400000000000001 0 0  0.055 0 0  0.05600000000000001 0 0  0.057 0 0  0.05800000000000001 0 0  0.059 0 0  0.06 0 0  0.06100000000000001 0 0  0.062 0 0  0.063 0 0  0.064 0 0  0.065 0 0  0.066 0 0  0.067 0 0  0.068 0 0  0.06900000000000001 0 0  0.07000000000000001 0 0  0.07100000000000001 0 0  0.07200000000000001 0 0  0.07300000000000001 0 0  0.07400000000000001 0 0  0.075 0 0  0.07600000000000001 0 0  0.077 0 0  0.07800000000000001 0 0  0.079 0 0  0.08 0 0  0.081 0 0  0.08200000000000002 0 0  0.083 0 0  0.08400000000000001 0 0  0.08500000000000001 0 0  0.08599999999999999 0 0  0.08700000000000001 0 0  0.08800000000000001 0 0  0.08900000000000001 0 0  0.09 0 0  0.091 0 0  0.09200000000000001 0 0  0.09300000000000001 0 0  0.094 0 0  0.095 0 0  0.09600000000000002 0 0  0.09700000000000002 0 0  0.098 0 0  0.099 0 0  0.1 0 0  </DataArray>
</Points>
<Cells>
<DataArray  type="UInt32"  Name="connectivity"  format="ascii">0 1  1 2  2 3  3 4  4 5  5 6  6 7  7 8  8 9  9 10  10 11  11 12  12 13  13 14  14 15  15 16  16 17  17 18  18 19  19 20  20 21  21 22  22 23  23 24  24 25  25 26  26 27  27 28  28 29  29 30  30 31  31 32  32 33  33 34  34 35  35 36  36 37  37 38  38 39  39 40  40 41  41 42  42 43  43 44  44 45  45 46  46 47  47 48  48 49  49 50  50 51  51 52  52 53  53 54  54 55  55 56  56 57  57 58  58 59  59 60  60 61  61 62  62 63  63 64  64 65  65 66  66 67  67 68  68 69  69 70  70 71  71 72  72 73  73 74  74 75  75 76  76 77  77 78  78 79  79 80  80 81  81 82  82 83  83 84  84 85  85 86  86 87  87 88  88 89  89 90  90 91  91 92  92 93  93 94  94 95  95 96  96 97  97 98  98 99  99 100  </DataArray>
<DataArray  type="UInt32"  Name="offsets"  format="ascii">2 4 6 8 10 12 14 16 18 20 22 24 26 28 30 32 34 36 38 40 42 44 46 48 50 52 54 56 58 60 62 64 66 68 70 72 74 76 78 80 82 84 86 88 90 92 94 96 98 100 102 104 106 108 110 112 114 116 118 120 122 124 126 128 130 132 134 136 138 140 142 144 146 148 150 152 154 156 158 160 162 164 166 168 170 172 174 176 178 180 182 184 186 188 190 192 194 196 198 200 </DataArray>
<DataArray  type="UInt8"  Name="types"  format="ascii">3 3 3 3 3 3 3 3 3 3 3 3 3 3 3 3 3 3 3 3 3 3 3 3 3 3 3 3 3 3 3 3 3 3 3 3 3 3 3 3 3 3 3 3 3 3 3 3 3 3 3 3 3 3 3 3 3 3 3 3 3 3 3 3 3 3 3 3 3 3 3 3 3 3 3 3 3 3 3 3 3 3 3 3 3 3 3 3 3 3 3 3 3 3 3 3 3 3 3 3 </DataArray>
</Cells>
<PointData  Scalars="f_14"> 
<DataArray  type="Float64"  Name="f_14"  format="ascii">6.2809166409678476e-10  6.7712570382526789e-10  8.3116333605006145e-10  1.1118842672206995e-09  1.5584272442635443e-09  2.2322412725460125e-09  3.2245938117357795e-09  4.6675287871680575e-09  6.7494086817584938e-09  9.7366130493704838e-09  1.4003534144956740e-08  2.0073750640609405e-08  2.8676224340735692e-08  4.0821616688097846e-08  5.7905441177647154e-08  8.1846852406369480e-08  1.1527454196738513e-07  1.6177461078865646e-07  2.2621959127177046e-07  3.1520320861974357e-07  4.3761224442359085e-07  6.0537528340040409e-07  8.3443851678490262e-07  1.1460315200110281e-06  1.5683014411493123e-06  2.1384127977667392e-06  2.9052325906943413e-06  3.9327472416125999e-06  5.3043895024552453e-06  7.1284905209713570e-06  9.5451152020133554e-06  1.2734588338530013e-05  1.6928075053565171e-05  2.2420642089229773e-05  2.9587296373203228e-05  3.8902573766290015e-05  5.0964333249043542e-05  6.6522498880695080e-05  8.6513581941425024e-05  1.1210190637905134e-04  1.4472854890970391e-04  1.8616908693008165e-04  2.3860131795761644e-04  3.0468416786637808e-04  3.8764903503956722e-04  4.9140481613083140e-04  6.2065781803834913e-04  7.8104767093814499e-04  9.7930020939421226e-04  1.2233980731880488e-03  1.5227694874506449e-03  1.8884953046260507e-03  2.3335339218444559e-03  2.8729631215833654e-03  3.5242372189517217e-03  4.3074571369301814e-03  5.2456501770367413e-03  6.3650553176464444e-03  7.6954088715472328e-03  9.2702242901638639e-03  1.1127058842327689e-02  1.3307758854806491e-02  1.5858674220247056e-02  1.8830832001207724e-02  2.2280058236320420e-02  2.6267036538943588e-02  3.0857291823633077e-02  3.6121087553970657e-02  4.2133225325778581e-02  4.8972736425259351e-02  5.6722456265732961e-02  6.5468474330988458e-02  7.5299454444667069e-02  8.6305822833219401e-02  9.8578824525358419e-02  1.1220945208362537e-01  1.2728725442276648e-01  1.4389903744352545e-01  1.6212747228848021e-01  1.8204963108117966e-01  2.0373547390054059e-01  2.2724631431995496e-01  2.5263329395260131e-01  2.7993589894167081e-01  3.0918055307701170e-01  3.4037932308475594e-01  3.7352877152366792e-01  4.0860899156007296e-01  4.4558285564556671e-01  4.8439550678992377e-01  5.2497411674817207e-01  5.6722793011009853e-01  6.1104860711739661e-01  6.5631087120110254e-01  7.0287345992545802e-01  7.5058037046587622e-01  7.9926238317839782e-01  8.4873883948506834e-01  8.9881964345215415e-01  9.4930745031297192e-01  1.0000000000000000e+00  </DataArray> 
</PointData> 
</Piece>
</UnstructuredGrid>
</VTKFile>