<?xml version="1.0"?>
<VTKFile type="UnstructuredGrid"  version="0.1"  >
<UnstructuredGrid>
<Piece  NumberOfPoints="101" NumberOfCells="100">
<Points>
<DataArray  type="Float64"  NumberOfComponents="3"  format="ascii">0 0 0  0.001 0 0  0.002 0 0  0.003 0 0  0.004 0 0  0.005 0 0  0.006000000000000001 0 0  0.007000000000000001 0 0  0.008 0 0  0.009000000000000001 0 0  0.01 0 0  0.011 0 0  0.012 0 0  0.013 0 0  0.014 0 0  0.015 0 0  0.016 0 0  0.017 0 0  0.018 0 0  0.019 0 0  0.02 0 0  0.021 0 0  0.022 0 0  0.023 0 0  0.024 0 0  0.025 0 0  0.026 0 0  0.027 0 0  0.028 0 0  0.029 0 0  0.03 0 0  0.031 0 0  0.032 0 0  0.033 0 0  0.034 0 0  0.035 0 0  0.036 0 0  0.03700000000000001 0 0  0.03800000000000001 0 0  0.03900000000000001 0 0  0.04 0 0  0.04100000000000001 0 0  0.042 0 0  0.043 0 0  0.044 0 0  0.045 0 0  0.04600000000000001 0 0  0.047 0 0  0.04800000000000001 0 0  0.049 0 0  0.05 0 0  0.051 0 0  0.052 0 0  0.05300000000000001 0 0  0.05400000000000001 0 0  0.055 0 0  0.05600000000000001 0 0  0.057 0 0  0.05800000000000001 0 0  0.059 0 0  0.06 0 0  0.06100000000000001 0 0  0.062 0 0  0.063 0 0  0.064 0 0  0.065 0 0  0.066 0 0  0.067 0 0  0.068 0 0  0.06900000000000001 0 0  0.07000000000000001 0 0  0.07100000000000001 0 0  0.07200000000000001 0 0  0.07300000000000001 0 0  0.07400000000000001 0 0  0.075 0 0  0.07600000000000001 0 0  0.077 0 0  0.07800000000000001 0 0  0.079 0 0  0.08 0 0  0.081 0 0  0.08200000000000002 0 0  0.083 0 0  0.08400000000000001 0 0  0.08500000000000001 0 0  0.08599999999999999 0 0  0.08700000000000001 0 0  0.08800000000000001 0 0  0.08900000000000001 0 0  0.09 0 0  0.091 0 0  0.09200000000000001 0 0  0.09300000000000001 0 0  0.094 0 0  0.095 0 0  0.09600000000000002 0 0  0.09700000000000002 0 0  0.098 0 0  0.099 0 0  0.1 0 0  </DataArray>
</Points>
<Cells>
<DataArray  type="UInt32"  Name="connectivity"  format="ascii">0 1  1 2  2 3  3 4  4 5  5 6  6 7  7 8  8 9  9 10  10 11  11 12  12 13  13 14  14 15  15 16  16 17  17 18  18 19  19 20  20 21  21 22  22 23  23 24  24 25  25 26  26 27  27 28  28 29  29 30  30 31  31 32  32 33  33 34  34 35  35 36  36 37  37 38  38 39  39 40  40 41  41 42  42 43  43 44  44 45  45 46  46 47  47 48  48 49  49 50  50 51  51 52  52 53  53 54  54 55  55 56  56 57  57 58  58 59  59 60  60 61  61 62  62 63  63 64  64 65  65 66  66 67  67 68  68 69  69 70  70 71  71 72  72 73  73 74  74 75  75 76  76 77  77 78  78 79  79 80  80 81  81 82  82 83  83 84  84 85  85 86  86 87  87 88  88 89  89 90  90 91  91 92  92 93  93 94  94 95  95 96  96 97  97 98  98 99  99 100  </DataArray>
<DataArray  type="UInt32"  Name="offsets"  format="ascii">2 4 6 8 10 12 14 16 18 20 22 24 26 28 30 32 34 36 38 40 42 44 46 48 50 52 54 56 58 60 62 64 66 68 70 72 74 76 78 80 82 84 86 88 90 92 94 96 98 100 102 104 106 108 110 112 114 116 118 120 122 124 126 128 130 132 134 136 138 140 142 144 146 148 150 152 154 156 158 160 162 164 166 168 170 172 174 176 178 180 182 184 186 188 190 192 194 196 198 200 </DataArray>
<DataArray  type="UInt8"  Name="types"  format="ascii">3 3 3 3 3 3 3 3 3 3 3 3 3 3 3 3 3 3 3 3 3 3 3 3 3 3 3 3 3 3 3 3 3 3 3 3 3 3 3 3 3 3 3 3 3 3 3 3 3 3 3 3 3 3 3 3 3 3 3 3 3 3 3 3 3 3 3 3 3 3 3 3 3 3 3 3 3 3 3 3 3 3 3 3 3 3 3 3 3 3 3 3 3 3 3 3 3 3 3 3 </DataArray>
</Cells>
<PointData  Scalars="f_14"> 
<DataArray  type="Float64"  Name="f_14"  format="ascii">3.0068725178601267e-04  3.0397232613193223e-04  3.1388110142703790e-04  3.3057476133124971e-04  3.5432370193923263e-04  3.8551016801653687e-04  4.2463194605295139e-04  4.7230711607145409e-04  5.2927986413821293e-04  5.9642735712030280e-04  6.7476768034780386e-04  7.6546883737342683e-04  8.6985880890734870e-04  9.8943666516372857e-04  1.1258847222201281e-03  1.2810817285000434e-03  1.4571170620878118e-03  1.6563059132288071e-03  1.8812054190206150e-03  2.1346317089384454e-03  2.4196778104485861e-03  2.7397323535493508e-03  3.0984990016567813e-03  3.5000165238562799e-03  3.9486794102224802e-03  4.4492589177385113e-03  5.0069244194124139e-03  5.6272649136036310e-03  6.3163105344686259e-03  7.0805538879654900e-03  7.9269710211989086e-03  8.8630418162364971e-03  9.8967695831034888e-03  1.1036699610704109e-02  1.2291936419181190e-02  1.3672159442985094e-02  1.5187636860966769e-02  1.6849237278437935e-02  1.8668438956661818e-02  2.0657336277963657e-02  2.2828643129894143e-02  2.5195692889949696e-02  2.7772434693550313e-02  3.0573425672584267e-02  3.3613818860110729e-02  3.6909346469008168e-02  4.0476298268672148e-02  4.4331494804466826e-02  4.8492255229651865e-02  5.2976359549003614e-02  5.7802005107361276e-02  6.2987757194800473e-02  6.8552493682981067e-02  7.4515343654249472e-02  8.0895620036069024e-02  8.7712746307987075e-02  9.4986177406244973e-02  1.0273531501183733e-01  1.1097941747081244e-01  1.1973750466026850e-01  1.2902825817920663e-01  1.3886991730941142e-01  1.4928017125710330e-01  1.6027604825042346e-01  1.7187380213002715e-01  1.8408879712933349e-01  1.9693539159640555e-01  2.1042682146016611e-01  2.2457508428881393e-01  2.3939082482707508e-01  2.5488322293049775e-01  2.7105988483865806e-01  2.8792673874420582e-01  3.0548793562056797e-01  3.2374575626735147e-01  3.4270052551865532e-01  3.6235053453535926e-01  3.8269197206783340e-01  4.0371886553045444e-01  4.2542303267385750e-01  4.4779404457538341e-01  4.7081920059299281e-01  4.9448351584366790e-01  5.1876972167462410e-01  5.4365827949539602e-01  5.6912740823193053e-01  5.9515312555135347e-01  6.2170930288917903e-01  6.4876773419068068e-01  6.7629821815629954e-01  7.0426865365864033e-01  7.3264514787728519e-01  7.6139213657872651e-01  7.9047251585363010e-01  8.1984778451378248e-01  8.4947819624779486e-01  8.7932292053923722e-01  9.0934021126455056e-01  9.3948758181190828e-01  9.6972198549717004e-01  1.0000000000000000e+00  </DataArray> 
</PointData> 
</Piece>
</UnstructuredGrid>
</VTKFile>