<?xml version="1.0"?>
<VTKFile type="UnstructuredGrid"  version="0.1"  >
<UnstructuredGrid>
<Piece  NumberOfPoints="101" NumberOfCells="100">
<Points>
<DataArray  type="Float64"  NumberOfComponents="3"  format="ascii">0 0 0  0.001 0 0  0.002 0 0  0.003 0 0  0.004 0 0  0.005 0 0  0.006000000000000001 0 0  0.007000000000000001 0 0  0.008 0 0  0.009000000000000001 0 0  0.01 0 0  0.011 0 0  0.012 0 0  0.013 0 0  0.014 0 0  0.015 0 0  0.016 0 0  0.017 0 0  0.018 0 0  0.019 0 0  0.02 0 0  0.021 0 0  0.022 0 0  0.023 0 0  0.024 0 0  0.025 0 0  0.026 0 0  0.027 0 0  0.028 0 0  0.029 0 0  0.03 0 0  0.031 0 0  0.032 0 0  0.033 0 0  0.034 0 0  0.035 0 0  0.036 0 0  0.03700000000000001 0 0  0.03800000000000001 0 0  0.03900000000000001 0 0  0.04 0 0  0.04100000000000001 0 0  0.042 0 0  0.043 0 0  0.044 0 0  0.045 0 0  0.04600000000000001 0 0  0.047 0 0  0.04800000000000001 0 0  0.049 0 0  0.05 0 0  0.051 0 0  0.052 0 0  0.05300000000000001 0 0  0.05400000000000001 0 0  0.055 0 0  0.05600000000000001 0 0  0.057 0 0  0.05800000000000001 0 0  0.059 0 0  0.06 0 0  0.06100000000000001 0 0  0.062 0 0  0.063 0 0  0.064 0 0  0.065 0 0  0.066 0 0  0.067 0 0  0.068 0 0  0.06900000000000001 0 0  0.07000000000000001 0 0  0.07100000000000001 0 0  0.07200000000000001 0 0  0.07300000000000001 0 0  0.07400000000000001 0 0  0.075 0 0  0.07600000000000001 0 0  0.077 0 0  0.07800000000000001 0 0  0.079 0 0  0.08 0 0  0.081 0 0  0.08200000000000002 0 0  0.083 0 0  0.08400000000000001 0 0  0.08500000000000001 0 0  0.08599999999999999 0 0  0.08700000000000001 0 0  0.08800000000000001 0 0  0.08900000000000001 0 0  0.09 0 0  0.091 0 0  0.09200000000000001 0 0  0.09300000000000001 0 0  0.094 0 0  0.095 0 0  0.09600000000000002 0 0  0.09700000000000002 0 0  0.098 0 0  0.099 0 0  0.1 0 0  </DataArray>
</Points>
<Cells>
<DataArray  type="UInt32"  Name="connectivity"  format="ascii">0 1  1 2  2 3  3 4  4 5  5 6  6 7  7 8  8 9  9 10  10 11  11 12  12 13  13 14  14 15  15 16  16 17  17 18  18 19  19 20  20 21  21 22  22 23  23 24  24 25  25 26  26 27  27 28  28 29  29 30  30 31  31 32  32 33  33 34  34 35  35 36  36 37  37 38  38 39  39 40  40 41  41 42  42 43  43 44  44 45  45 46  46 47  47 48  48 49  49 50  50 51  51 52  52 53  53 54  54 55  55 56  56 57  57 58  58 59  59 60  60 61  61 62  62 63  63 64  64 65  65 66  66 67  67 68  68 69  69 70  70 71  71 72  72 73  73 74  74 75  75 76  76 77  77 78  78 79  79 80  80 81  81 82  82 83  83 84  84 85  85 86  86 87  87 88  88 89  89 90  90 91  91 92  92 93  93 94  94 95  95 96  96 97  97 98  98 99  99 100  </DataArray>
<DataArray  type="UInt32"  Name="offsets"  format="ascii">2 4 6 8 10 12 14 16 18 20 22 24 26 28 30 32 34 36 38 40 42 44 46 48 50 52 54 56 58 60 62 64 66 68 70 72 74 76 78 80 82 84 86 88 90 92 94 96 98 100 102 104 106 108 110 112 114 116 118 120 122 124 126 128 130 132 134 136 138 140 142 144 146 148 150 152 154 156 158 160 162 164 166 168 170 172 174 176 178 180 182 184 186 188 190 192 194 196 198 200 </DataArray>
<DataArray  type="UInt8"  Name="types"  format="ascii">3 3 3 3 3 3 3 3 3 3 3 3 3 3 3 3 3 3 3 3 3 3 3 3 3 3 3 3 3 3 3 3 3 3 3 3 3 3 3 3 3 3 3 3 3 3 3 3 3 3 3 3 3 3 3 3 3 3 3 3 3 3 3 3 3 3 3 3 3 3 3 3 3 3 3 3 3 3 3 3 3 3 3 3 3 3 3 3 3 3 3 3 3 3 3 3 3 3 3 3 </DataArray>
</Cells>
<PointData  Scalars="f_14"> 
<DataArray  type="Float64"  Name="f_14"  format="ascii">4.1978678602893623e-27  6.5485241705978440e-27  1.6168787679668182e-26  4.3497153642606297e-26  1.1787298789370234e-25  3.1819772885542449e-25  8.5436465455814360e-25  2.2810704665955136e-24  6.0553747117432343e-24  1.5981476814816126e-23  4.1930865201916256e-23  1.0936011120886165e-22  2.8350388447590907e-22  7.3046654694653979e-22  1.8704613428074442e-21  4.7595907852355304e-21  1.2034495602113864e-20  3.0233472973209009e-20  7.5459524182542976e-20  1.8709816029918822e-19  4.6080533382441711e-19  1.1272510324505504e-18  2.7386790191895158e-18  6.6075538172218599e-18  1.5829990307421666e-17  3.7654925589876375e-17  8.8925136906866823e-17  2.0847254074387175e-16  4.8512569694083601e-16  1.1204691843372900e-15  2.5682924231377748e-15  5.8417939580603053e-15  1.3184483173081093e-14  2.9522464635596251e-14  6.5580070736160942e-14  1.4450327968859485e-13  3.1581046818405045e-13  6.8450156495992584e-13  1.4712188386897884e-12  3.1353824769468840e-12  6.6247490521654517e-12  1.3876149811891924e-11  2.8810044805074487e-11  5.9285550114251039e-11  1.2090329279780462e-10  2.4432392821384318e-10  4.8920017624994495e-10  9.7040715065222972e-10  1.9068747133314374e-09  3.7114628829012846e-09  7.1544608354530731e-09  1.3657513576447826e-08  2.5815678879459017e-08  4.8313338461503584e-08  8.9511074049860241e-08  1.6416010492455832e-07  2.9798530884053711e-07  5.3532078760552173e-07  9.5165928945230517e-07  1.6739929981572068e-06  2.9133172694747420e-06  5.0158188799447940e-06  8.5422937336201318e-06  1.4389485630449364e-05  2.3972570786864344e-05  3.9495171952838430e-05  6.4342227022065509e-05  1.0364174328994728e-04  1.6505363162120116e-04  2.5985668877338857e-04  4.0441703702096514e-04  6.2213084556038477e-04  9.4593800458176054e-04  1.4214978039660123e-03  2.1110980949011261e-03  3.0983310867037173e-03  4.4935074049576324e-03  6.4396921578979537e-03  9.1191318575126693e-03  1.2759702250379968e-02  1.7640852589835179e-02  2.4098365669713667e-02  3.2527115110329193e-02  4.3380907123847200e-02  5.7168471377631494e-02  7.4444742039572007e-02  9.5796767645760603e-02  1.2182391833168772e-01  1.5311251655999508e-01  1.9020557834836468e-01  2.3356897054629330e-01  2.8355590106156087e-01  3.4037218474155706e-01  4.0404508546648477e-01  4.7439865056097708e-01  5.5103827361067370e-01  6.3334672567272454e-01  7.2049310287376711e-01  8.1145511352387800e-01  9.0505397126094467e-01  1.0000000000000000e+00  </DataArray> 
</PointData> 
</Piece>
</UnstructuredGrid>
</VTKFile>