<?xml version="1.0"?>
<VTKFile type="UnstructuredGrid"  version="0.1"  >
<UnstructuredGrid>
<Piece  NumberOfPoints="101" NumberOfCells="100">
<Points>
<DataArray  type="Float64"  NumberOfComponents="3"  format="ascii">0 0 0  0.001 0 0  0.002 0 0  0.003 0 0  0.004 0 0  0.005 0 0  0.006000000000000001 0 0  0.007000000000000001 0 0  0.008 0 0  0.009000000000000001 0 0  0.01 0 0  0.011 0 0  0.012 0 0  0.013 0 0  0.014 0 0  0.015 0 0  0.016 0 0  0.017 0 0  0.018 0 0  0.019 0 0  0.02 0 0  0.021 0 0  0.022 0 0  0.023 0 0  0.024 0 0  0.025 0 0  0.026 0 0  0.027 0 0  0.028 0 0  0.029 0 0  0.03 0 0  0.031 0 0  0.032 0 0  0.033 0 0  0.034 0 0  0.035 0 0  0.036 0 0  0.03700000000000001 0 0  0.03800000000000001 0 0  0.03900000000000001 0 0  0.04 0 0  0.04100000000000001 0 0  0.042 0 0  0.043 0 0  0.044 0 0  0.045 0 0  0.04600000000000001 0 0  0.047 0 0  0.04800000000000001 0 0  0.049 0 0  0.05 0 0  0.051 0 0  0.052 0 0  0.05300000000000001 0 0  0.05400000000000001 0 0  0.055 0 0  0.05600000000000001 0 0  0.057 0 0  0.05800000000000001 0 0  0.059 0 0  0.06 0 0  0.06100000000000001 0 0  0.062 0 0  0.063 0 0  0.064 0 0  0.065 0 0  0.066 0 0  0.067 0 0  0.068 0 0  0.06900000000000001 0 0  0.07000000000000001 0 0  0.07100000000000001 0 0  0.07200000000000001 0 0  0.07300000000000001 0 0  0.07400000000000001 0 0  0.075 0 0  0.07600000000000001 0 0  0.077 0 0  0.07800000000000001 0 0  0.079 0 0  0.08 0 0  0.081 0 0  0.08200000000000002 0 0  0.083 0 0  0.08400000000000001 0 0  0.08500000000000001 0 0  0.08599999999999999 0 0  0.08700000000000001 0 0  0.08800000000000001 0 0  0.08900000000000001 0 0  0.09 0 0  0.091 0 0  0.09200000000000001 0 0  0.09300000000000001 0 0  0.094 0 0  0.095 0 0  0.09600000000000002 0 0  0.09700000000000002 0 0  0.098 0 0  0.099 0 0  0.1 0 0  </DataArray>
</Points>
<Cells>
<DataArray  type="UInt32"  Name="connectivity"  format="ascii">0 1  1 2  2 3  3 4  4 5  5 6  6 7  7 8  8 9  9 10  10 11  11 12  12 13  13 14  14 15  15 16  16 17  17 18  18 19  19 20  20 21  21 22  22 23  23 24  24 25  25 26  26 27  27 28  28 29  29 30  30 31  31 32  32 33  33 34  34 35  35 36  36 37  37 38  38 39  39 40  40 41  41 42  42 43  43 44  44 45  45 46  46 47  47 48  48 49  49 50  50 51  51 52  52 53  53 54  54 55  55 56  56 57  57 58  58 59  59 60  60 61  61 62  62 63  63 64  64 65  65 66  66 67  67 68  68 69  69 70  70 71  71 72  72 73  73 74  74 75  75 76  76 77  77 78  78 79  79 80  80 81  81 82  82 83  83 84  84 85  85 86  86 87  87 88  88 89  89 90  90 91  91 92  92 93  93 94  94 95  95 96  96 97  97 98  98 99  99 100  </DataArray>
<DataArray  type="UInt32"  Name="offsets"  format="ascii">2 4 6 8 10 12 14 16 18 20 22 24 26 28 30 32 34 36 38 40 42 44 46 48 50 52 54 56 58 60 62 64 66 68 70 72 74 76 78 80 82 84 86 88 90 92 94 96 98 100 102 104 106 108 110 112 114 116 118 120 122 124 126 128 130 132 134 136 138 140 142 144 146 148 150 152 154 156 158 160 162 164 166 168 170 172 174 176 178 180 182 184 186 188 190 192 194 196 198 200 </DataArray>
<DataArray  type="UInt8"  Name="types"  format="ascii">3 3 3 3 3 3 3 3 3 3 3 3 3 3 3 3 3 3 3 3 3 3 3 3 3 3 3 3 3 3 3 3 3 3 3 3 3 3 3 3 3 3 3 3 3 3 3 3 3 3 3 3 3 3 3 3 3 3 3 3 3 3 3 3 3 3 3 3 3 3 3 3 3 3 3 3 3 3 3 3 3 3 3 3 3 3 3 3 3 3 3 3 3 3 3 3 3 3 3 3 </DataArray>
</Cells>
<PointData  Scalars="f_14"> 
<DataArray  type="Float64"  Name="f_14"  format="ascii">2.5023036776169436e-04  2.5309337939869456e-04  2.6173165826543702e-04  2.7629345854283613e-04  2.9702761233109262e-04  3.2428614493569297e-04  3.5852794127228758e-04  4.0032346799545089e-04  4.5036055670309092e-04  5.0945125389144374e-04  5.7853974314468867e-04  6.5871134425019614e-04  7.5120259245035328e-04  8.5741239879371723e-04  9.7891428945560358e-04  1.1174697178905030e-03  1.2750424386921472e-03  1.4538139260158094e-03  1.6561998123151231e-03  1.8848673149265253e-03  2.1427536086749289e-03  2.4330850921645717e-03  2.7593974837646358e-03  3.1255566705226138e-03  3.5357802193802107e-03  3.9946594451873577e-03  4.5071819141916051e-03  5.0787542450267979e-03  5.7152250518642490e-03  6.4229078564732953e-03  7.2086037776424453e-03  8.0796237879386789e-03  9.0438103093557678e-03  1.0109557901272864e-02  1.1285832776582948e-02  1.2582190865150337e-02  1.4008794128228403e-02  1.5576424813440152e-02  1.7296497327734858e-02  1.9181067395732318e-02  2.1242838163404377e-02  2.3495162902473613e-02  2.5952043969575574e-02  2.8628127676469790e-02  3.1538694733706324e-02  3.4699645940453903e-02  3.8127482807927819e-02  4.1839282823239100e-02  4.5852669084702098e-02  5.0185774068796964e-02  5.4857197323163936e-02  5.9885956919193864e-02  6.5291434541917520e-02  7.1093314143830008e-02  7.7311514142801838e-02  8.3966113202019910e-02  9.1077269691584639e-02  9.8665134996498066e-02  1.0674976090376767e-01  1.1535100137158294e-01  1.2448840905531557e-01  1.3418112703765303e-01  1.4444777628269020e-01  1.5530633940537442e-01  1.6677404141739297e-01  1.7886722817746600e-01  1.9160124333705303e-01  2.0499030463073789e-01  2.1904738041302596e-01  2.3378406738903068e-01  2.4921047052462075e-01  2.6533508615119478e-01  2.8216468930055610e-01  2.9970422631568777e-01  3.1795671378297169e-01  3.3692314482008845e-01  3.5660240373111940e-01  3.7699119000603787e-01  3.9808395259578311e-01  4.1987283533650188e-01  4.4234763432765672e-01  4.6549576798885067e-01  4.8930226043009750e-01  5.1374973867051221e-01  5.3881844413198665e-01  5.6448625871831870e-01  5.9072874566771283e-01  6.1751920523880743e-01  6.4482874515883537e-01  6.7262636562867784e-01  7.0087905854492638e-01  7.2955192046528816e-01  7.5860827871229430e-01  7.8800982988297963e-01  8.1771678991051311e-01  8.4768805470924891e-01  8.7788137032878077e-01  9.0825351144668953e-01  9.3876046694499182e-01  9.6935763124296992e-01  1.0000000000000000e+00  </DataArray> 
</PointData> 
</Piece>
</UnstructuredGrid>
</VTKFile>