<?xml version="1.0"?>
<VTKFile type="UnstructuredGrid"  version="0.1"  >
<UnstructuredGrid>
<Piece  NumberOfPoints="101" NumberOfCells="100">
<Points>
<DataArray  type="Float64"  NumberOfComponents="3"  format="ascii">0 0 0  0.001 0 0  0.002 0 0  0.003 0 0  0.004 0 0  0.005 0 0  0.006000000000000001 0 0  0.007000000000000001 0 0  0.008 0 0  0.009000000000000001 0 0  0.01 0 0  0.011 0 0  0.012 0 0  0.013 0 0  0.014 0 0  0.015 0 0  0.016 0 0  0.017 0 0  0.018 0 0  0.019 0 0  0.02 0 0  0.021 0 0  0.022 0 0  0.023 0 0  0.024 0 0  0.025 0 0  0.026 0 0  0.027 0 0  0.028 0 0  0.029 0 0  0.03 0 0  0.031 0 0  0.032 0 0  0.033 0 0  0.034 0 0  0.035 0 0  0.036 0 0  0.03700000000000001 0 0  0.03800000000000001 0 0  0.03900000000000001 0 0  0.04 0 0  0.04100000000000001 0 0  0.042 0 0  0.043 0 0  0.044 0 0  0.045 0 0  0.04600000000000001 0 0  0.047 0 0  0.04800000000000001 0 0  0.049 0 0  0.05 0 0  0.051 0 0  0.052 0 0  0.05300000000000001 0 0  0.05400000000000001 0 0  0.055 0 0  0.05600000000000001 0 0  0.057 0 0  0.05800000000000001 0 0  0.059 0 0  0.06 0 0  0.06100000000000001 0 0  0.062 0 0  0.063 0 0  0.064 0 0  0.065 0 0  0.066 0 0  0.067 0 0  0.068 0 0  0.06900000000000001 0 0  0.07000000000000001 0 0  0.07100000000000001 0 0  0.07200000000000001 0 0  0.07300000000000001 0 0  0.07400000000000001 0 0  0.075 0 0  0.07600000000000001 0 0  0.077 0 0  0.07800000000000001 0 0  0.079 0 0  0.08 0 0  0.081 0 0  0.08200000000000002 0 0  0.083 0 0  0.08400000000000001 0 0  0.08500000000000001 0 0  0.08599999999999999 0 0  0.08700000000000001 0 0  0.08800000000000001 0 0  0.08900000000000001 0 0  0.09 0 0  0.091 0 0  0.09200000000000001 0 0  0.09300000000000001 0 0  0.094 0 0  0.095 0 0  0.09600000000000002 0 0  0.09700000000000002 0 0  0.098 0 0  0.099 0 0  0.1 0 0  </DataArray>
</Points>
<Cells>
<DataArray  type="UInt32"  Name="connectivity"  format="ascii">0 1  1 2  2 3  3 4  4 5  5 6  6 7  7 8  8 9  9 10  10 11  11 12  12 13  13 14  14 15  15 16  16 17  17 18  18 19  19 20  20 21  21 22  22 23  23 24  24 25  25 26  26 27  27 28  28 29  29 30  30 31  31 32  32 33  33 34  34 35  35 36  36 37  37 38  38 39  39 40  40 41  41 42  42 43  43 44  44 45  45 46  46 47  47 48  48 49  49 50  50 51  51 52  52 53  53 54  54 55  55 56  56 57  57 58  58 59  59 60  60 61  61 62  62 63  63 64  64 65  65 66  66 67  67 68  68 69  69 70  70 71  71 72  72 73  73 74  74 75  75 76  76 77  77 78  78 79  79 80  80 81  81 82  82 83  83 84  84 85  85 86  86 87  87 88  88 89  89 90  90 91  91 92  92 93  93 94  94 95  95 96  96 97  97 98  98 99  99 100  </DataArray>
<DataArray  type="UInt32"  Name="offsets"  format="ascii">2 4 6 8 10 12 14 16 18 20 22 24 26 28 30 32 34 36 38 40 42 44 46 48 50 52 54 56 58 60 62 64 66 68 70 72 74 76 78 80 82 84 86 88 90 92 94 96 98 100 102 104 106 108 110 112 114 116 118 120 122 124 126 128 130 132 134 136 138 140 142 144 146 148 150 152 154 156 158 160 162 164 166 168 170 172 174 176 178 180 182 184 186 188 190 192 194 196 198 200 </DataArray>
<DataArray  type="UInt8"  Name="types"  format="ascii">3 3 3 3 3 3 3 3 3 3 3 3 3 3 3 3 3 3 3 3 3 3 3 3 3 3 3 3 3 3 3 3 3 3 3 3 3 3 3 3 3 3 3 3 3 3 3 3 3 3 3 3 3 3 3 3 3 3 3 3 3 3 3 3 3 3 3 3 3 3 3 3 3 3 3 3 3 3 3 3 3 3 3 3 3 3 3 3 3 3 3 3 3 3 3 3 3 3 3 3 </DataArray>
</Cells>
<PointData  Scalars="f_14"> 
<DataArray  type="Float64"  Name="f_14"  format="ascii">1.8775063779624485e-12  2.1150032199108351e-12  2.8832578644380126e-12  4.3615937888824437e-12  6.8913407668431050e-12  1.1048168059597753e-11  1.7762182001099111e-11  2.8508438499152622e-11  4.5603079290332062e-11  7.2658610199196216e-11  1.1527866941175031e-10  1.8211190827993407e-10  2.8644188249214975e-10  4.4857296122561856e-10  6.9939218849875429e-10  1.0856590718949580e-09  1.6778205907746080e-09  2.5814963728481098e-09  3.9542686059665073e-09  6.0300964340146646e-09  9.1546272817890119e-09  1.3835993561718512e-08  2.0817489024790293e-08  3.1180980206331628e-08  4.6493239794645533e-08  6.9011866412221024e-08  1.0197343066885701e-07  1.4999440317464948e-07  2.1962582831012901e-07  3.2011628785756248e-07  4.6445527862176092e-07  6.7079170179951193e-07  9.6435090561195857e-07  1.3800100070997399e-06  1.9657366118209393e-06  2.7871523080121511e-06  3.9335513544894362e-06  5.5257888449631818e-06  7.7265533912661546e-06  1.0753659029101248e-05  1.4897131393891527e-05  2.0541025599587329e-05  2.8191098363025161e-05  3.8509664451857827e-05  5.2359195854076383e-05  7.0856467779948336e-05  9.5439313125534648e-05  1.2794830810571018e-04  1.7072596504825535e-04  2.2673623895649078e-04  2.9970734369207509e-04  3.9430099879828002e-04  5.1631126241490077e-04  6.7289601912291558e-04  8.7284395060817073e-04  1.1268793865315963e-03  1.4480067773110547e-03  1.8518956156165077e-03  2.3573054292865760e-03  2.9865489521247925e-03  3.7659897379702101e-03  4.7265683187466597e-03  5.9043485375061067e-03  7.3410729522613346e-03  9.0847132688826188e-03  1.1189998710626550e-02  1.3718902183927635e-02  1.6741061197185002e-02  2.0334107897652644e-02  2.4583880496998830e-02  2.9584486957415154e-02  3.5438191310263330e-02  4.2255093574370704e-02  5.0152576108142236e-02  5.9254492512486406e-02  6.9690079996682933e-02  8.1592582462176905e-02  9.5097579411848460e-02  1.1034102503338893e-01  1.2745701222442060e-01  1.4657528762261690e-01  1.6781855548796132e-01  1.9129962009124149e-01  2.1711842756656430e-01  2.4535907842073224e-01  2.7608689048103774e-01  3.0934559844647269e-01  3.4515477987822418e-01  3.8350759800168160e-01  4.2436894878887427e-01  4.6767409328624510e-01  5.1332784605239457e-01  5.6120437705611292e-01  6.1114766782005103e-01  6.6297264351620311e-01  7.1646698181705648e-01  7.7139357739736092e-01  8.2749361896992224e-01  8.8449021457092281e-01  9.4209248142511670e-01  1.0000000000000000e+00  </DataArray> 
</PointData> 
</Piece>
</UnstructuredGrid>
</VTKFile>