<?xml version="1.0"?>
<VTKFile type="UnstructuredGrid"  version="0.1"  >
<UnstructuredGrid>
<Piece  NumberOfPoints="101" NumberOfCells="100">
<Points>
<DataArray  type="Float64"  NumberOfComponents="3"  format="ascii">0 0 0  0.001 0 0  0.002 0 0  0.003 0 0  0.004 0 0  0.005 0 0  0.006000000000000001 0 0  0.007000000000000001 0 0  0.008 0 0  0.009000000000000001 0 0  0.01 0 0  0.011 0 0  0.012 0 0  0.013 0 0  0.014 0 0  0.015 0 0  0.016 0 0  0.017 0 0  0.018 0 0  0.019 0 0  0.02 0 0  0.021 0 0  0.022 0 0  0.023 0 0  0.024 0 0  0.025 0 0  0.026 0 0  0.027 0 0  0.028 0 0  0.029 0 0  0.03 0 0  0.031 0 0  0.032 0 0  0.033 0 0  0.034 0 0  0.035 0 0  0.036 0 0  0.03700000000000001 0 0  0.03800000000000001 0 0  0.03900000000000001 0 0  0.04 0 0  0.04100000000000001 0 0  0.042 0 0  0.043 0 0  0.044 0 0  0.045 0 0  0.04600000000000001 0 0  0.047 0 0  0.04800000000000001 0 0  0.049 0 0  0.05 0 0  0.051 0 0  0.052 0 0  0.05300000000000001 0 0  0.05400000000000001 0 0  0.055 0 0  0.05600000000000001 0 0  0.057 0 0  0.05800000000000001 0 0  0.059 0 0  0.06 0 0  0.06100000000000001 0 0  0.062 0 0  0.063 0 0  0.064 0 0  0.065 0 0  0.066 0 0  0.067 0 0  0.068 0 0  0.06900000000000001 0 0  0.07000000000000001 0 0  0.07100000000000001 0 0  0.07200000000000001 0 0  0.07300000000000001 0 0  0.07400000000000001 0 0  0.075 0 0  0.07600000000000001 0 0  0.077 0 0  0.07800000000000001 0 0  0.079 0 0  0.08 0 0  0.081 0 0  0.08200000000000002 0 0  0.083 0 0  0.08400000000000001 0 0  0.08500000000000001 0 0  0.08599999999999999 0 0  0.08700000000000001 0 0  0.08800000000000001 0 0  0.08900000000000001 0 0  0.09 0 0  0.091 0 0  0.09200000000000001 0 0  0.09300000000000001 0 0  0.094 0 0  0.095 0 0  0.09600000000000002 0 0  0.09700000000000002 0 0  0.098 0 0  0.099 0 0  0.1 0 0  </DataArray>
</Points>
<Cells>
<DataArray  type="UInt32"  Name="connectivity"  format="ascii">0 1  1 2  2 3  3 4  4 5  5 6  6 7  7 8  8 9  9 10  10 11  11 12  12 13  13 14  14 15  15 16  16 17  17 18  18 19  19 20  20 21  21 22  22 23  23 24  24 25  25 26  26 27  27 28  28 29  29 30  30 31  31 32  32 33  33 34  34 35  35 36  36 37  37 38  38 39  39 40  40 41  41 42  42 43  43 44  44 45  45 46  46 47  47 48  48 49  49 50  50 51  51 52  52 53  53 54  54 55  55 56  56 57  57 58  58 59  59 60  60 61  61 62  62 63  63 64  64 65  65 66  66 67  67 68  68 69  69 70  70 71  71 72  72 73  73 74  74 75  75 76  76 77  77 78  78 79  79 80  80 81  81 82  82 83  83 84  84 85  85 86  86 87  87 88  88 89  89 90  90 91  91 92  92 93  93 94  94 95  95 96  96 97  97 98  98 99  99 100  </DataArray>
<DataArray  type="UInt32"  Name="offsets"  format="ascii">2 4 6 8 10 12 14 16 18 20 22 24 26 28 30 32 34 36 38 40 42 44 46 48 50 52 54 56 58 60 62 64 66 68 70 72 74 76 78 80 82 84 86 88 90 92 94 96 98 100 102 104 106 108 110 112 114 116 118 120 122 124 126 128 130 132 134 136 138 140 142 144 146 148 150 152 154 156 158 160 162 164 166 168 170 172 174 176 178 180 182 184 186 188 190 192 194 196 198 200 </DataArray>
<DataArray  type="UInt8"  Name="types"  format="ascii">3 3 3 3 3 3 3 3 3 3 3 3 3 3 3 3 3 3 3 3 3 3 3 3 3 3 3 3 3 3 3 3 3 3 3 3 3 3 3 3 3 3 3 3 3 3 3 3 3 3 3 3 3 3 3 3 3 3 3 3 3 3 3 3 3 3 3 3 3 3 3 3 3 3 3 3 3 3 3 3 3 3 3 3 3 3 3 3 3 3 3 3 3 3 3 3 3 3 3 3 </DataArray>
</Cells>
<PointData  Scalars="f_14"> 
<DataArray  type="Float64"  Name="f_14"  format="ascii">3.8018636997902629e-09  4.0500185328938867e-09  4.8235227408531807e-09  6.2124763886535860e-09  8.3772422897475039e-09  1.1564666653290587e-08  1.6132707128472298e-08  2.2585544539879433e-08  3.1622080764797181e-08  4.4201740962601855e-08  6.1632762741914230e-08  8.5689737402213920e-08  1.1876915146349847e-07  1.6409415778941094e-07  2.2598289975704048e-07  3.1019855413926080e-07  4.2440400594492633e-07  5.7874990310605078e-07  7.8663196840867650e-07  1.0656621054236424e-06  1.4389082867743453e-06  1.9364707455982755e-06  2.5974769169368081e-06  3.4725952264447146e-06  4.6271885424287762e-06  6.1452522384432219e-06  8.1343096896826206e-06  1.0731469948943561e-05  1.4110888565598656e-05  1.8492913191743037e-05  2.4155240817759266e-05  3.1446463097609309e-05  4.0802429969900375e-05  5.2765919119317426e-05  6.8010158925774065e-05  8.7366814240166275e-05  1.1185910603052711e-04  1.4274079563495674e-04  1.8154181951746524e-04  2.3012140800004747e-04  2.9072955783963488e-04  3.6607774958235211e-04  4.5941980168327139e-04  5.7464372927804519e-04  7.1637542069928498e-04  8.9009485355571051e-04  1.1022654385626368e-03  1.3604768975898902e-03  1.6736018472397530e-03  2.0519659660541006e-03  2.5075312686091236e-03  3.0540915911623154e-03  3.7074789108937326e-03  4.4857785761131443e-03  5.4095509227276243e-03  6.5020561004444566e-03  7.7894782416182340e-03  9.3011443908881265e-03  1.1069732893006598e-02  1.3131465231379608e-02  1.5526274646110619e-02  1.8297944266105232e-02  2.1494206995870291e-02  2.5166799036522469e-02  2.9371458725374243e-02  3.4167862381935768e-02  3.9619489080996932e-02  4.5793406762975053e-02  5.2759972860264619e-02  6.0592443681629256e-02  6.9366488162279388e-02  7.9159603253115884e-02  9.0050430175804344e-02  1.0211797298625207e-01  1.1544072333080911e-01  1.3009569789789954e-01  1.4615739780173689e-01  1.6369670191235100e-01  1.8277970888618794e-01  2.0346654526568839e-01  2.2581015941186944e-01  2.4985512311692376e-01  2.7563646442252576e-01  3.0317855635794605e-01  3.3249408693416382e-01  3.6358313572317369e-01  3.9643238166984424e-01  4.3101446540096011e-01  4.6728752720873662e-01  5.0519493911422864e-01  5.4466524600415511e-01  5.8561232685166320e-01  6.2793578256914351e-01  6.7152155221184828e-01  7.1624275418445416e-01  7.6196074394179292e-01  8.0852637457103482e-01  8.5578144174983717e-01  9.0356029004487504e-01  9.5169155349078716e-01  1.0000000000000000e+00  </DataArray> 
</PointData> 
</Piece>
</UnstructuredGrid>
</VTKFile>