<?xml version="1.0"?>
<VTKFile type="UnstructuredGrid"  version="0.1"  >
<UnstructuredGrid>
<Piece  NumberOfPoints="101" NumberOfCells="100">
<Points>
<DataArray  type="Float64"  NumberOfComponents="3"  format="ascii">0 0 0  0.001 0 0  0.002 0 0  0.003 0 0  0.004 0 0  0.005 0 0  0.006000000000000001 0 0  0.007000000000000001 0 0  0.008 0 0  0.009000000000000001 0 0  0.01 0 0  0.011 0 0  0.012 0 0  0.013 0 0  0.014 0 0  0.015 0 0  0.016 0 0  0.017 0 0  0.018 0 0  0.019 0 0  0.02 0 0  0.021 0 0  0.022 0 0  0.023 0 0  0.024 0 0  0.025 0 0  0.026 0 0  0.027 0 0  0.028 0 0  0.029 0 0  0.03 0 0  0.031 0 0  0.032 0 0  0.033 0 0  0.034 0 0  0.035 0 0  0.036 0 0  0.03700000000000001 0 0  0.03800000000000001 0 0  0.03900000000000001 0 0  0.04 0 0  0.04100000000000001 0 0  0.042 0 0  0.043 0 0  0.044 0 0  0.045 0 0  0.04600000000000001 0 0  0.047 0 0  0.04800000000000001 0 0  0.049 0 0  0.05 0 0  0.051 0 0  0.052 0 0  0.05300000000000001 0 0  0.05400000000000001 0 0  0.055 0 0  0.05600000000000001 0 0  0.057 0 0  0.05800000000000001 0 0  0.059 0 0  0.06 0 0  0.06100000000000001 0 0  0.062 0 0  0.063 0 0  0.064 0 0  0.065 0 0  0.066 0 0  0.067 0 0  0.068 0 0  0.06900000000000001 0 0  0.07000000000000001 0 0  0.07100000000000001 0 0  0.07200000000000001 0 0  0.07300000000000001 0 0  0.07400000000000001 0 0  0.075 0 0  0.07600000000000001 0 0  0.077 0 0  0.07800000000000001 0 0  0.079 0 0  0.08 0 0  0.081 0 0  0.08200000000000002 0 0  0.083 0 0  0.08400000000000001 0 0  0.08500000000000001 0 0  0.08599999999999999 0 0  0.08700000000000001 0 0  0.08800000000000001 0 0  0.08900000000000001 0 0  0.09 0 0  0.091 0 0  0.09200000000000001 0 0  0.09300000000000001 0 0  0.094 0 0  0.095 0 0  0.09600000000000002 0 0  0.09700000000000002 0 0  0.098 0 0  0.099 0 0  0.1 0 0  </DataArray>
</Points>
<Cells>
<DataArray  type="UInt32"  Name="connectivity"  format="ascii">0 1  1 2  2 3  3 4  4 5  5 6  6 7  7 8  8 9  9 10  10 11  11 12  12 13  13 14  14 15  15 16  16 17  17 18  18 19  19 20  20 21  21 22  22 23  23 24  24 25  25 26  26 27  27 28  28 29  29 30  30 31  31 32  32 33  33 34  34 35  35 36  36 37  37 38  38 39  39 40  40 41  41 42  42 43  43 44  44 45  45 46  46 47  47 48  48 49  49 50  50 51  51 52  52 53  53 54  54 55  55 56  56 57  57 58  58 59  59 60  60 61  61 62  62 63  63 64  64 65  65 66  66 67  67 68  68 69  69 70  70 71  71 72  72 73  73 74  74 75  75 76  76 77  77 78  78 79  79 80  80 81  81 82  82 83  83 84  84 85  85 86  86 87  87 88  88 89  89 90  90 91  91 92  92 93  93 94  94 95  95 96  96 97  97 98  98 99  99 100  </DataArray>
<DataArray  type="UInt32"  Name="offsets"  format="ascii">2 4 6 8 10 12 14 16 18 20 22 24 26 28 30 32 34 36 38 40 42 44 46 48 50 52 54 56 58 60 62 64 66 68 70 72 74 76 78 80 82 84 86 88 90 92 94 96 98 100 102 104 106 108 110 112 114 116 118 120 122 124 126 128 130 132 134 136 138 140 142 144 146 148 150 152 154 156 158 160 162 164 166 168 170 172 174 176 178 180 182 184 186 188 190 192 194 196 198 200 </DataArray>
<DataArray  type="UInt8"  Name="types"  format="ascii">3 3 3 3 3 3 3 3 3 3 3 3 3 3 3 3 3 3 3 3 3 3 3 3 3 3 3 3 3 3 3 3 3 3 3 3 3 3 3 3 3 3 3 3 3 3 3 3 3 3 3 3 3 3 3 3 3 3 3 3 3 3 3 3 3 3 3 3 3 3 3 3 3 3 3 3 3 3 3 3 3 3 3 3 3 3 3 3 3 3 3 3 3 3 3 3 3 3 3 3 </DataArray>
</Cells>
<PointData  Scalars="f_14"> 
<DataArray  type="Float64"  Name="f_14"  format="ascii">7.4883041875190633e-05  7.6016757918606279e-05  7.9444792391528349e-05  8.5248241485768672e-05  9.3563725668254855e-05  1.0458559013046441e-04  1.1856900572094357e-04  1.3583399030356829e-04  1.5677037566254708e-04  1.8184374985642823e-04  2.1160240921146368e-04  2.4668535783928898e-04  2.8783139556021057e-04  3.3588933730207534e-04  3.9182940831197451e-04  4.5675585974623459e-04  5.3192084827247111e-04  6.1873962110308377e-04  7.1880704425909402e-04  8.3391550671447741e-04  9.6607422627547333e-04  1.1175299744939603e-03  1.2907892274949975e-03  1.4886417372242254e-03  1.7141855032146321e-03  1.9708531084773689e-03  2.2624393645040370e-03  2.5931301896218980e-03  2.9675326220939854e-03  3.3907058444638885e-03  3.8681930688105994e-03  4.4060541039461143e-03  5.0108983953480752e-03  5.6899182970123500e-03  6.4509223017281993e-03  7.3023679228680100e-03  8.2533938870450740e-03  9.3138512633807232e-03  1.0494333122144161e-02  1.1806202283741265e-02  1.3261616689036240e-02  1.4873551894436102e-02  1.6655820170730497e-02  1.8623085664062771e-02  2.0790875061330240e-02  2.3175583191499462e-02  2.5794472989490905e-02  2.8665669251132155e-02  3.1808145616863494e-02  3.5241704239005904e-02  3.8986947613020240e-02  4.3065242087744211e-02  4.7498672613460233e-02  5.2309988340053841e-02  5.7522538740588339e-02  6.3160200008307840e-02  6.9247291557200802e-02  7.5808482547446585e-02  8.2868688456802106e-02  9.0452957826536756e-02  9.8586349425011863e-02  1.0729380019232351e-01  1.1659998445435077e-01  1.2652916502263456e-01  1.3710503692617704e-01  1.4835056465079055e-01  1.6028781388917920e-01  1.7293777892859585e-01  1.8632020692066376e-01  2.0045342038776584e-01  2.1535413942023934e-01  2.3103730510647036e-01  2.4751590581192975e-01  2.6480080798140154e-01  2.8290059317945759e-01  3.0182140310612865e-01  3.2156679432644802e-01  3.4213760443307117e-01  3.6353183131979644e-01  3.8574452718005015e-01  4.0876770875825225e-01  4.3259028527359528e-01  4.5719800530587318e-01  4.8257342378248058e-01  5.0869589003596760e-01  5.3554155771421341e-01  5.6308341712245569e-01  5.9129135036034230e-01  6.2013220939049996e-01  6.4956991694071453e-01  6.7956558990262639e-01  7.1007768464920495e-01  7.4106216345432308e-01  7.7247268096395649e-01  8.0426078944313106e-01  8.3637616130902248e-01  8.6876682726169008e-01  9.0137942814275929e-01  9.3415947849162939e-01  9.6705163963092544e-01  1.0000000000000000e+00  </DataArray> 
</PointData> 
</Piece>
</UnstructuredGrid>
</VTKFile>