<?xml version="1.0"?>
<VTKFile type="UnstructuredGrid"  version="0.1"  >
<UnstructuredGrid>
<Piece  NumberOfPoints="101" NumberOfCells="100">
<Points>
<DataArray  type="Float64"  NumberOfComponents="3"  format="ascii">0 0 0  0.001 0 0  0.002 0 0  0.003 0 0  0.004 0 0  0.005 0 0  0.006000000000000001 0 0  0.007000000000000001 0 0  0.008 0 0  0.009000000000000001 0 0  0.01 0 0  0.011 0 0  0.012 0 0  0.013 0 0  0.014 0 0  0.015 0 0  0.016 0 0  0.017 0 0  0.018 0 0  0.019 0 0  0.02 0 0  0.021 0 0  0.022 0 0  0.023 0 0  0.024 0 0  0.025 0 0  0.026 0 0  0.027 0 0  0.028 0 0  0.029 0 0  0.03 0 0  0.031 0 0  0.032 0 0  0.033 0 0  0.034 0 0  0.035 0 0  0.036 0 0  0.03700000000000001 0 0  0.03800000000000001 0 0  0.03900000000000001 0 0  0.04 0 0  0.04100000000000001 0 0  0.042 0 0  0.043 0 0  0.044 0 0  0.045 0 0  0.04600000000000001 0 0  0.047 0 0  0.04800000000000001 0 0  0.049 0 0  0.05 0 0  0.051 0 0  0.052 0 0  0.05300000000000001 0 0  0.05400000000000001 0 0  0.055 0 0  0.05600000000000001 0 0  0.057 0 0  0.05800000000000001 0 0  0.059 0 0  0.06 0 0  0.06100000000000001 0 0  0.062 0 0  0.063 0 0  0.064 0 0  0.065 0 0  0.066 0 0  0.067 0 0  0.068 0 0  0.06900000000000001 0 0  0.07000000000000001 0 0  0.07100000000000001 0 0  0.07200000000000001 0 0  0.07300000000000001 0 0  0.07400000000000001 0 0  0.075 0 0  0.07600000000000001 0 0  0.077 0 0  0.07800000000000001 0 0  0.079 0 0  0.08 0 0  0.081 0 0  0.08200000000000002 0 0  0.083 0 0  0.08400000000000001 0 0  0.08500000000000001 0 0  0.08599999999999999 0 0  0.08700000000000001 0 0  0.08800000000000001 0 0  0.08900000000000001 0 0  0.09 0 0  0.091 0 0  0.09200000000000001 0 0  0.09300000000000001 0 0  0.094 0 0  0.095 0 0  0.09600000000000002 0 0  0.09700000000000002 0 0  0.098 0 0  0.099 0 0  0.1 0 0  </DataArray>
</Points>
<Cells>
<DataArray  type="UInt32"  Name="connectivity"  format="ascii">0 1  1 2  2 3  3 4  4 5  5 6  6 7  7 8  8 9  9 10  10 11  11 12  12 13  13 14  14 15  15 16  16 17  17 18  18 19  19 20  20 21  21 22  22 23  23 24  24 25  25 26  26 27  27 28  28 29  29 30  30 31  31 32  32 33  33 34  34 35  35 36  36 37  37 38  38 39  39 40  40 41  41 42  42 43  43 44  44 45  45 46  46 47  47 48  48 49  49 50  50 51  51 52  52 53  53 54  54 55  55 56  56 57  57 58  58 59  59 60  60 61  61 62  62 63  63 64  64 65  65 66  66 67  67 68  68 69  69 70  70 71  71 72  72 73  73 74  74 75  75 76  76 77  77 78  78 79  79 80  80 81  81 82  82 83  83 84  84 85  85 86  86 87  87 88  88 89  89 90  90 91  91 92  92 93  93 94  94 95  95 96  96 97  97 98  98 99  99 100  </DataArray>
<DataArray  type="UInt32"  Name="offsets"  format="ascii">2 4 6 8 10 12 14 16 18 20 22 24 26 28 30 32 34 36 38 40 42 44 46 48 50 52 54 56 58 60 62 64 66 68 70 72 74 76 78 80 82 84 86 88 90 92 94 96 98 100 102 104 106 108 110 112 114 116 118 120 122 124 126 128 130 132 134 136 138 140 142 144 146 148 150 152 154 156 158 160 162 164 166 168 170 172 174 176 178 180 182 184 186 188 190 192 194 196 198 200 </DataArray>
<DataArray  type="UInt8"  Name="types"  format="ascii">3 3 3 3 3 3 3 3 3 3 3 3 3 3 3 3 3 3 3 3 3 3 3 3 3 3 3 3 3 3 3 3 3 3 3 3 3 3 3 3 3 3 3 3 3 3 3 3 3 3 3 3 3 3 3 3 3 3 3 3 3 3 3 3 3 3 3 3 3 3 3 3 3 3 3 3 3 3 3 3 3 3 3 3 3 3 3 3 3 3 3 3 3 3 3 3 3 3 3 3 </DataArray>
</Cells>
<PointData  Scalars="f_14"> 
<DataArray  type="Float64"  Name="f_14"  format="ascii">6.2511224089037218e-09  6.6382531730323827e-09  7.8424887113848791e-09  9.9964985655313416e-09  1.3335534844409770e-08  1.8219837171428343e-08  2.5168479674002348e-08  3.4907327371359141e-08  4.8434807899902948e-08  6.7110466185492559e-08  9.2772821685628138e-08  1.2789496830630301e-07  1.7578873719186362e-07  2.4087118862280864e-07  3.2901083488450596e-07  4.4797546416424379e-07  6.0800890037071364e-07  8.2257068181497680e-07  1.1092806828145960e-06  1.4911203696576528e-06  1.9979539313815520e-06  2.6684462315818365e-06  3.5524706804814576e-06  4.7141190262002450e-06  6.2354470098214180e-06  8.2211151073493653e-06  1.0804112451851648e-05  1.4152784702258312e-05  1.8479423241412949e-05  2.4050713685551278e-05  3.1200386178985192e-05  4.0344458071280287e-05  5.1999510860423891e-05  6.6804497012794127e-05  8.5546627420222043e-05  1.0919194546493032e-04  1.3892124718854447e-04  1.7617205673290176e-04  2.2268740941679732e-04  2.8057222844245742e-04  3.5235810172416939e-04  4.4107726868018336e-04  5.5034660859650984e-04  6.8446237758547910e-04  8.4850636521369008e-04  1.0484640294575462e-03  1.2913550147354057e-03  1.5853762576375546e-03  1.9400576344570394e-03  2.3664298003865268e-03  2.8772035101227830e-03  3.4869592929437972e-03  4.2123458832767453e-03  5.0722852837283118e-03  6.0881817673828610e-03  7.2841315185524355e-03  8.6871289777465874e-03  1.0327265312201276e-02  1.2237913795785460e-02  1.4455896272430456e-02  1.7021624319103965e-02  1.9979208243799333e-02  2.3376526678788277e-02  2.7265249288186934e-02  3.1700805030405996e-02  3.6742288527894032e-02  4.2452297423993750e-02  4.8896694171331037e-02  5.6144286514541876e-02  6.4266422012550076e-02  7.3336493294640551e-02  8.3429352354064235e-02  9.4620634037022255e-02  1.0698599095746576e-01  1.2060024432249102e-01  1.3553645754204238e-01  1.5186494196312156e-01  1.6965220654688962e-01  1.8895986572384266e-01  2.0984352193918429e-01  2.3235164145642734e-01  2.5652444374066630e-01  2.8239282611554006e-01  3.0997734630723911e-01  3.3928728589205881e-01  3.7031981750025661e-01  4.0305929786297529e-01  4.3747670740280958e-01  4.7352925506385973e-01  5.1116016447601875e-01  5.5029865439393277e-01  5.9086012270748922e-01  6.3274653927087809e-01  6.7584704844173860e-01  7.2003877767528590e-01  7.6518784390608674e-01  8.1115054490430671e-01  8.5777471844769748e-01  9.0490124813642803e-01  9.5236569111849800e-01  1.0000000000000000e+00  </DataArray> 
</PointData> 
</Piece>
</UnstructuredGrid>
</VTKFile>