<?xml version="1.0"?>
<VTKFile type="UnstructuredGrid"  version="0.1"  >
<UnstructuredGrid>
<Piece  NumberOfPoints="101" NumberOfCells="100">
<Points>
<DataArray  type="Float64"  NumberOfComponents="3"  format="ascii">0 0 0  0.001 0 0  0.002 0 0  0.003 0 0  0.004 0 0  0.005 0 0  0.006000000000000001 0 0  0.007000000000000001 0 0  0.008 0 0  0.009000000000000001 0 0  0.01 0 0  0.011 0 0  0.012 0 0  0.013 0 0  0.014 0 0  0.015 0 0  0.016 0 0  0.017 0 0  0.018 0 0  0.019 0 0  0.02 0 0  0.021 0 0  0.022 0 0  0.023 0 0  0.024 0 0  0.025 0 0  0.026 0 0  0.027 0 0  0.028 0 0  0.029 0 0  0.03 0 0  0.031 0 0  0.032 0 0  0.033 0 0  0.034 0 0  0.035 0 0  0.036 0 0  0.03700000000000001 0 0  0.03800000000000001 0 0  0.03900000000000001 0 0  0.04 0 0  0.04100000000000001 0 0  0.042 0 0  0.043 0 0  0.044 0 0  0.045 0 0  0.04600000000000001 0 0  0.047 0 0  0.04800000000000001 0 0  0.049 0 0  0.05 0 0  0.051 0 0  0.052 0 0  0.05300000000000001 0 0  0.05400000000000001 0 0  0.055 0 0  0.05600000000000001 0 0  0.057 0 0  0.05800000000000001 0 0  0.059 0 0  0.06 0 0  0.06100000000000001 0 0  0.062 0 0  0.063 0 0  0.064 0 0  0.065 0 0  0.066 0 0  0.067 0 0  0.068 0 0  0.06900000000000001 0 0  0.07000000000000001 0 0  0.07100000000000001 0 0  0.07200000000000001 0 0  0.07300000000000001 0 0  0.07400000000000001 0 0  0.075 0 0  0.07600000000000001 0 0  0.077 0 0  0.07800000000000001 0 0  0.079 0 0  0.08 0 0  0.081 0 0  0.08200000000000002 0 0  0.083 0 0  0.08400000000000001 0 0  0.08500000000000001 0 0  0.08599999999999999 0 0  0.08700000000000001 0 0  0.08800000000000001 0 0  0.08900000000000001 0 0  0.09 0 0  0.091 0 0  0.09200000000000001 0 0  0.09300000000000001 0 0  0.094 0 0  0.095 0 0  0.09600000000000002 0 0  0.09700000000000002 0 0  0.098 0 0  0.099 0 0  0.1 0 0  </DataArray>
</Points>
<Cells>
<DataArray  type="UInt32"  Name="connectivity"  format="ascii">0 1  1 2  2 3  3 4  4 5  5 6  6 7  7 8  8 9  9 10  10 11  11 12  12 13  13 14  14 15  15 16  16 17  17 18  18 19  19 20  20 21  21 22  22 23  23 24  24 25  25 26  26 27  27 28  28 29  29 30  30 31  31 32  32 33  33 34  34 35  35 36  36 37  37 38  38 39  39 40  40 41  41 42  42 43  43 44  44 45  45 46  46 47  47 48  48 49  49 50  50 51  51 52  52 53  53 54  54 55  55 56  56 57  57 58  58 59  59 60  60 61  61 62  62 63  63 64  64 65  65 66  66 67  67 68  68 69  69 70  70 71  71 72  72 73  73 74  74 75  75 76  76 77  77 78  78 79  79 80  80 81  81 82  82 83  83 84  84 85  85 86  86 87  87 88  88 89  89 90  90 91  91 92  92 93  93 94  94 95  95 96  96 97  97 98  98 99  99 100  </DataArray>
<DataArray  type="UInt32"  Name="offsets"  format="ascii">2 4 6 8 10 12 14 16 18 20 22 24 26 28 30 32 34 36 38 40 42 44 46 48 50 52 54 56 58 60 62 64 66 68 70 72 74 76 78 80 82 84 86 88 90 92 94 96 98 100 102 104 106 108 110 112 114 116 118 120 122 124 126 128 130 132 134 136 138 140 142 144 146 148 150 152 154 156 158 160 162 164 166 168 170 172 174 176 178 180 182 184 186 188 190 192 194 196 198 200 </DataArray>
<DataArray  type="UInt8"  Name="types"  format="ascii">3 3 3 3 3 3 3 3 3 3 3 3 3 3 3 3 3 3 3 3 3 3 3 3 3 3 3 3 3 3 3 3 3 3 3 3 3 3 3 3 3 3 3 3 3 3 3 3 3 3 3 3 3 3 3 3 3 3 3 3 3 3 3 3 3 3 3 3 3 3 3 3 3 3 3 3 3 3 3 3 3 3 3 3 3 3 3 3 3 3 3 3 3 3 3 3 3 3 3 3 </DataArray>
</Cells>
<PointData  Scalars="f_14"> 
<DataArray  type="Float64"  Name="f_14"  format="ascii">1.5105245825078342e-04  1.5300464058460276e-04  1.5889983286357403e-04  1.6885446723190014e-04  1.8306425340003184e-04  2.0180666897677514e-04  2.2544445801145430e-04  2.5443014941092091e-04  2.8931160963931304e-04  3.3073864640857631e-04  3.7947068182588462e-04  4.3638551458128900e-04  5.0248919113668987e-04  5.7892700541796113e-04  6.6699564511979990e-04  7.6815650031415272e-04  8.8405014651802140e-04  1.0165120096400355e-03  1.1675892142088010e-03  1.3395586089190697e-03  1.5349459547536104e-03  1.7565462507006496e-03  2.0074451603543666e-03  2.2910414894412993e-03  2.6110706495594219e-03  2.9716290271713870e-03  3.3771991592048750e-03  3.8326755975530208e-03  4.3433913244367624e-03  4.9151445591188664e-03  5.5542257740087021e-03  6.2674447149630363e-03  7.0621571968007097e-03  7.9462914209727977e-03  8.9283735382628873e-03  1.0017552155667481e-02  1.1223621463588617e-02  1.2557042637554170e-02  1.4028963148287747e-02  1.5651233595523704e-02  1.7436421664966683e-02  1.9397822794704724e-02  2.1549467127681039e-02  2.3906122320995156e-02  2.6483291781306866e-02  2.9297207898915018e-02  3.2364819861602070e-02  3.5703775643464539e-02  3.9332397784039179e-02  4.3269652599364543e-02  4.7535112499420953e-02  5.2148911125803402e-02  5.7131691069575545e-02  6.2504543981986904e-02  6.8288942949984013e-02  7.4506667073968511e-02  8.1179718256699396e-02  8.8330230289135725e-02  9.5980370400795018e-02  1.0415223352814534e-01  1.1286772964386986e-01  1.2214846458158998e-01  1.3201561488381372e-01  1.4248979729435796e-01  1.5359093360908327e-01  1.6533811168923612e-01  1.7774944352867747e-01  1.9084192134847439e-01  2.0463127276837287e-01  2.1913181617321492e-01  2.3435631745210309e-01  2.5031584933778461e-01  2.6701965461215427e-01  2.8447501446987067e-01  3.0268712334489928e-01  3.2165897150351930e-01  3.4139123669132065e-01  3.6188218609050554e-01  3.8312758979715228e-01  4.0512064696590755e-01  4.2785192569208569e-01  4.5130931760868975e-01  4.7547800806914148e-01  5.0034046266631482e-01  5.2587643070593071e-01  5.5206296610876504e-01  5.7887446606296955e-01  6.0628272758676138e-01  6.3425702199464273e-01  6.6276418708918683e-01  6.9176873672726158e-01  7.2123298723663010e-01  7.5111719998826854e-01  7.8137973926376780e-01  8.1197724439796826e-01  8.4286481502668398e-01  8.7399620813000645e-01  9.0532404543518352e-01  9.3680002963113396e-01  9.6837516775089461e-01  1.0000000000000000e+00  </DataArray> 
</PointData> 
</Piece>
</UnstructuredGrid>
</VTKFile>