<?xml version="1.0"?>
<VTKFile type="UnstructuredGrid"  version="0.1"  >
<UnstructuredGrid>
<Piece  NumberOfPoints="101" NumberOfCells="100">
<Points>
<DataArray  type="Float64"  NumberOfComponents="3"  format="ascii">0 0 0  0.001 0 0  0.002 0 0  0.003 0 0  0.004 0 0  0.005 0 0  0.006000000000000001 0 0  0.007000000000000001 0 0  0.008 0 0  0.009000000000000001 0 0  0.01 0 0  0.011 0 0  0.012 0 0  0.013 0 0  0.014 0 0  0.015 0 0  0.016 0 0  0.017 0 0  0.018 0 0  0.019 0 0  0.02 0 0  0.021 0 0  0.022 0 0  0.023 0 0  0.024 0 0  0.025 0 0  0.026 0 0  0.027 0 0  0.028 0 0  0.029 0 0  0.03 0 0  0.031 0 0  0.032 0 0  0.033 0 0  0.034 0 0  0.035 0 0  0.036 0 0  0.03700000000000001 0 0  0.03800000000000001 0 0  0.03900000000000001 0 0  0.04 0 0  0.04100000000000001 0 0  0.042 0 0  0.043 0 0  0.044 0 0  0.045 0 0  0.04600000000000001 0 0  0.047 0 0  0.04800000000000001 0 0  0.049 0 0  0.05 0 0  0.051 0 0  0.052 0 0  0.05300000000000001 0 0  0.05400000000000001 0 0  0.055 0 0  0.05600000000000001 0 0  0.057 0 0  0.05800000000000001 0 0  0.059 0 0  0.06 0 0  0.06100000000000001 0 0  0.062 0 0  0.063 0 0  0.064 0 0  0.065 0 0  0.066 0 0  0.067 0 0  0.068 0 0  0.06900000000000001 0 0  0.07000000000000001 0 0  0.07100000000000001 0 0  0.07200000000000001 0 0  0.07300000000000001 0 0  0.07400000000000001 0 0  0.075 0 0  0.07600000000000001 0 0  0.077 0 0  0.07800000000000001 0 0  0.079 0 0  0.08 0 0  0.081 0 0  0.08200000000000002 0 0  0.083 0 0  0.08400000000000001 0 0  0.08500000000000001 0 0  0.08599999999999999 0 0  0.08700000000000001 0 0  0.08800000000000001 0 0  0.08900000000000001 0 0  0.09 0 0  0.091 0 0  0.09200000000000001 0 0  0.09300000000000001 0 0  0.094 0 0  0.095 0 0  0.09600000000000002 0 0  0.09700000000000002 0 0  0.098 0 0  0.099 0 0  0.1 0 0  </DataArray>
</Points>
<Cells>
<DataArray  type="UInt32"  Name="connectivity"  format="ascii">0 1  1 2  2 3  3 4  4 5  5 6  6 7  7 8  8 9  9 10  10 11  11 12  12 13  13 14  14 15  15 16  16 17  17 18  18 19  19 20  20 21  21 22  22 23  23 24  24 25  25 26  26 27  27 28  28 29  29 30  30 31  31 32  32 33  33 34  34 35  35 36  36 37  37 38  38 39  39 40  40 41  41 42  42 43  43 44  44 45  45 46  46 47  47 48  48 49  49 50  50 51  51 52  52 53  53 54  54 55  55 56  56 57  57 58  58 59  59 60  60 61  61 62  62 63  63 64  64 65  65 66  66 67  67 68  68 69  69 70  70 71  71 72  72 73  73 74  74 75  75 76  76 77  77 78  78 79  79 80  80 81  81 82  82 83  83 84  84 85  85 86  86 87  87 88  88 89  89 90  90 91  91 92  92 93  93 94  94 95  95 96  96 97  97 98  98 99  99 100  </DataArray>
<DataArray  type="UInt32"  Name="offsets"  format="ascii">2 4 6 8 10 12 14 16 18 20 22 24 26 28 30 32 34 36 38 40 42 44 46 48 50 52 54 56 58 60 62 64 66 68 70 72 74 76 78 80 82 84 86 88 90 92 94 96 98 100 102 104 106 108 110 112 114 116 118 120 122 124 126 128 130 132 134 136 138 140 142 144 146 148 150 152 154 156 158 160 162 164 166 168 170 172 174 176 178 180 182 184 186 188 190 192 194 196 198 200 </DataArray>
<DataArray  type="UInt8"  Name="types"  format="ascii">3 3 3 3 3 3 3 3 3 3 3 3 3 3 3 3 3 3 3 3 3 3 3 3 3 3 3 3 3 3 3 3 3 3 3 3 3 3 3 3 3 3 3 3 3 3 3 3 3 3 3 3 3 3 3 3 3 3 3 3 3 3 3 3 3 3 3 3 3 3 3 3 3 3 3 3 3 3 3 3 3 3 3 3 3 3 3 3 3 3 3 3 3 3 3 3 3 3 3 3 </DataArray>
</Cells>
<PointData  Scalars="f_14"> 
<DataArray  type="Float64"  Name="f_14"  format="ascii">8.4105114335050571e-11  9.1978775664476098e-11  1.1694834255149709e-10  1.6326787837178806e-10  2.3875031377800839e-10  3.5595456254164374e-10  5.3406553994890917e-10  8.0171502142281491e-10  1.2011079280717459e-09  1.7939753223174926e-09  2.6700878233151476e-09  3.9593517216911941e-09  5.8489014140513402e-09  8.6071305536487350e-09  1.2617315450089725e-08  1.8424435634303438e-08  2.6800062223340567e-08  3.8831858908185795e-08  5.6046441728435116e-08  8.0577220699286881e-08  1.1539258280966381e-07  1.6460459796011841e-07  2.3388461211718587e-07  3.3101996664364646e-07  4.6665604417369037e-07  6.5528035437394947e-07  9.1652097785643999e-07  1.2768510027856501e-06  1.7718143151270146e-06  2.4489170141720689e-06  3.3713636595668696e-06  4.6228594020773563e-06  6.3137487159766171e-06  8.5888198263433714e-06  1.1637171829135778e-05  1.5704619616132593e-05  2.1109200496711692e-05  2.8260445981557115e-05  3.7683192236409454e-05  5.0046822312411985e-05  6.6200960752336177e-05  8.7218773984769509e-05  1.1444916439287213e-04  1.4957927717151079e-04  1.9470886075601882e-04  2.5243812588541506e-04  3.2597082582550696e-04  4.1923431989357495e-04  5.3701837164433456e-04  6.8513435800859055e-04  8.7059641141277631e-04  1.1018257679792846e-03  1.3888792359024269e-03  1.7437022144423068e-03  2.1804060728970406e-03  2.7155689305045530e-03  3.3685579566932935e-03  4.1618702360523407e-03  5.1214880201561437e-03  6.2772428332837143e-03  7.6631814345797548e-03  9.3179250988109832e-03  1.1285012105670084e-02  1.3613211778369740e-02  1.6356796951110499e-02  1.9575760446138468e-02  2.3335960086143442e-02  2.7709176043137010e-02  3.2773064018685016e-02  3.8610987948009899e-02  4.5311716700582726e-02  5.2968970678957450e-02  6.1680806345127834e-02  7.1548829556638313e-02  8.2677232172951046e-02  9.5171650664848742e-02  1.0913785036034875e-01  1.2468024438816191e-01  1.4190026219661897e-01  1.6089458856043756e-01  1.8175330003775250e-01  2.0455793167896100e-01  2.2937951217426941e-01  2.5627661030843379e-01  2.8529343932338680e-01  3.1645806834249107e-01  3.4978079118279259e-01  3.8525270251275717e-01  4.2284452929281741e-01  4.6250576171537355e-01  5.0416412245762066e-01  5.4772540606415920e-01  5.9307371184780622e-01  6.4007208406636107e-01  6.8856356259220086e-01  7.3837263618433013e-01  7.8930707918118415e-01  8.4116014136204509e-01  8.9371305028526282e-01  9.4673777599905284e-01  1.0000000000000000e+00  </DataArray> 
</PointData> 
</Piece>
</UnstructuredGrid>
</VTKFile>