<?xml version="1.0"?>
<VTKFile type="UnstructuredGrid"  version="0.1"  >
<UnstructuredGrid>
<Piece  NumberOfPoints="101" NumberOfCells="100">
<Points>
<DataArray  type="Float64"  NumberOfComponents="3"  format="ascii">0 0 0  0.001 0 0  0.002 0 0  0.003 0 0  0.004 0 0  0.005 0 0  0.006000000000000001 0 0  0.007000000000000001 0 0  0.008 0 0  0.009000000000000001 0 0  0.01 0 0  0.011 0 0  0.012 0 0  0.013 0 0  0.014 0 0  0.015 0 0  0.016 0 0  0.017 0 0  0.018 0 0  0.019 0 0  0.02 0 0  0.021 0 0  0.022 0 0  0.023 0 0  0.024 0 0  0.025 0 0  0.026 0 0  0.027 0 0  0.028 0 0  0.029 0 0  0.03 0 0  0.031 0 0  0.032 0 0  0.033 0 0  0.034 0 0  0.035 0 0  0.036 0 0  0.03700000000000001 0 0  0.03800000000000001 0 0  0.03900000000000001 0 0  0.04 0 0  0.04100000000000001 0 0  0.042 0 0  0.043 0 0  0.044 0 0  0.045 0 0  0.04600000000000001 0 0  0.047 0 0  0.04800000000000001 0 0  0.049 0 0  0.05 0 0  0.051 0 0  0.052 0 0  0.05300000000000001 0 0  0.05400000000000001 0 0  0.055 0 0  0.05600000000000001 0 0  0.057 0 0  0.05800000000000001 0 0  0.059 0 0  0.06 0 0  0.06100000000000001 0 0  0.062 0 0  0.063 0 0  0.064 0 0  0.065 0 0  0.066 0 0  0.067 0 0  0.068 0 0  0.06900000000000001 0 0  0.07000000000000001 0 0  0.07100000000000001 0 0  0.07200000000000001 0 0  0.07300000000000001 0 0  0.07400000000000001 0 0  0.075 0 0  0.07600000000000001 0 0  0.077 0 0  0.07800000000000001 0 0  0.079 0 0  0.08 0 0  0.081 0 0  0.08200000000000002 0 0  0.083 0 0  0.08400000000000001 0 0  0.08500000000000001 0 0  0.08599999999999999 0 0  0.08700000000000001 0 0  0.08800000000000001 0 0  0.08900000000000001 0 0  0.09 0 0  0.091 0 0  0.09200000000000001 0 0  0.09300000000000001 0 0  0.094 0 0  0.095 0 0  0.09600000000000002 0 0  0.09700000000000002 0 0  0.098 0 0  0.099 0 0  0.1 0 0  </DataArray>
</Points>
<Cells>
<DataArray  type="UInt32"  Name="connectivity"  format="ascii">0 1  1 2  2 3  3 4  4 5  5 6  6 7  7 8  8 9  9 10  10 11  11 12  12 13  13 14  14 15  15 16  16 17  17 18  18 19  19 20  20 21  21 22  22 23  23 24  24 25  25 26  26 27  27 28  28 29  29 30  30 31  31 32  32 33  33 34  34 35  35 36  36 37  37 38  38 39  39 40  40 41  41 42  42 43  43 44  44 45  45 46  46 47  47 48  48 49  49 50  50 51  51 52  52 53  53 54  54 55  55 56  56 57  57 58  58 59  59 60  60 61  61 62  62 63  63 64  64 65  65 66  66 67  67 68  68 69  69 70  70 71  71 72  72 73  73 74  74 75  75 76  76 77  77 78  78 79  79 80  80 81  81 82  82 83  83 84  84 85  85 86  86 87  87 88  88 89  89 90  90 91  91 92  92 93  93 94  94 95  95 96  96 97  97 98  98 99  99 100  </DataArray>
<DataArray  type="UInt32"  Name="offsets"  format="ascii">2 4 6 8 10 12 14 16 18 20 22 24 26 28 30 32 34 36 38 40 42 44 46 48 50 52 54 56 58 60 62 64 66 68 70 72 74 76 78 80 82 84 86 88 90 92 94 96 98 100 102 104 106 108 110 112 114 116 118 120 122 124 126 128 130 132 134 136 138 140 142 144 146 148 150 152 154 156 158 160 162 164 166 168 170 172 174 176 178 180 182 184 186 188 190 192 194 196 198 200 </DataArray>
<DataArray  type="UInt8"  Name="types"  format="ascii">3 3 3 3 3 3 3 3 3 3 3 3 3 3 3 3 3 3 3 3 3 3 3 3 3 3 3 3 3 3 3 3 3 3 3 3 3 3 3 3 3 3 3 3 3 3 3 3 3 3 3 3 3 3 3 3 3 3 3 3 3 3 3 3 3 3 3 3 3 3 3 3 3 3 3 3 3 3 3 3 3 3 3 3 3 3 3 3 3 3 3 3 3 3 3 3 3 3 3 3 </DataArray>
</Cells>
<PointData  Scalars="f_14"> 
<DataArray  type="Float64"  Name="f_14"  format="ascii">4.3128961626398441e-07  4.4721973118581487e-07  4.9602310472116020e-07  5.8079196167095351e-07  7.0685925996569800e-07  8.8207504350182593e-07  1.1172084801622533e-06  1.4264911682124083e-06  1.8283223740350500e-06  2.3461624142463641e-06  3.0096465190020005e-06  3.8559583122839691e-06  4.9315096174364309e-06  6.2939817352926852e-06  8.0147927333068577e-06  1.0182065701677333e-05  1.2904184436223327e-05  1.6314035637966929e-05  2.0574050491258469e-05  2.5882173379965811e-05  3.2478901470680875e-05  4.0655555833234687e-05  5.0763962528218894e-05  6.3227740452282560e-05  7.8555411407001222e-05  9.7355566478497430e-05  1.2035434092711130e-04  1.4841546683843582e-04  1.8256318812706764e-04  2.2400833535566480e-04  2.7417786737125345e-04  3.3474819200060053e-04  4.0768257792041842e-04  4.9527296317102660e-04  6.0018645138506578e-04  7.2551676337460078e-04  8.7484087795334153e-04  1.0522810504665860e-03  1.2625723392085673e-03  1.5111356975685214e-03  1.8041566023538258e-03  2.1486690854877239e-03  2.5526449166359310e-03  3.0250875480817446e-03  3.5761302805459336e-03  4.2171379403093479e-03  4.9608111751490089e-03  5.8212922810401066e-03  6.8142712657463583e-03  7.9570906424326574e-03  9.2688472301025518e-03  1.0770489022498114e-02  1.2484904978296636e-02  1.4437005388820184e-02  1.6653790301430181e-02  1.9164403324156355e-02  2.2000168017084418e-02  2.5194603995942855e-02  2.8783419840512178e-02  3.2804479922011083e-02  3.7297742346116831e-02  4.2305165357630965e-02  4.7870579773918356e-02  5.4039525310770983e-02  6.0859049038417865e-02  6.8377464657414344e-02  7.6644071812512468e-02  8.5708835263629837e-02  9.5622024400703998e-02  1.0643381431521602e-01  1.1819385041481194e-01  1.3095077937578628e-01  1.4475175005613142e-01  1.5964188882239697e-01  1.7566375455815228e-01  1.9285677940059009e-01  2.1125670197418014e-01  2.3089500053546899e-01  2.5179833399066942e-01  2.7398799917799282e-01  2.9747941310185039e-01  3.2228162895014811e-01  3.4839689470598234e-01  3.7582026297126220e-01  4.0453926024625020e-01  4.3453362335387669e-01  4.6577510996370508e-01  4.9822738926484322e-01  5.3184601777192331e-01  5.6657850404007037e-01  6.0236446473425986e-01  6.3913587307049735e-01  6.7681739914877681e-01  7.1532684016171000e-01  7.5457563692071794e-01  7.9446947162764192e-01  8.3490894036759156e-01  8.7579029244215223e-01  9.1700622743232196e-01  9.5844673980688611e-01  1.0000000000000000e+00  </DataArray> 
</PointData> 
</Piece>
</UnstructuredGrid>
</VTKFile>