<?xml version="1.0"?>
<VTKFile type="UnstructuredGrid"  version="0.1"  >
<UnstructuredGrid>
<Piece  NumberOfPoints="101" NumberOfCells="100">
<Points>
<DataArray  type="Float64"  NumberOfComponents="3"  format="ascii">0 0 0  0.001 0 0  0.002 0 0  0.003 0 0  0.004 0 0  0.005 0 0  0.006000000000000001 0 0  0.007000000000000001 0 0  0.008 0 0  0.009000000000000001 0 0  0.01 0 0  0.011 0 0  0.012 0 0  0.013 0 0  0.014 0 0  0.015 0 0  0.016 0 0  0.017 0 0  0.018 0 0  0.019 0 0  0.02 0 0  0.021 0 0  0.022 0 0  0.023 0 0  0.024 0 0  0.025 0 0  0.026 0 0  0.027 0 0  0.028 0 0  0.029 0 0  0.03 0 0  0.031 0 0  0.032 0 0  0.033 0 0  0.034 0 0  0.035 0 0  0.036 0 0  0.03700000000000001 0 0  0.03800000000000001 0 0  0.03900000000000001 0 0  0.04 0 0  0.04100000000000001 0 0  0.042 0 0  0.043 0 0  0.044 0 0  0.045 0 0  0.04600000000000001 0 0  0.047 0 0  0.04800000000000001 0 0  0.049 0 0  0.05 0 0  0.051 0 0  0.052 0 0  0.05300000000000001 0 0  0.05400000000000001 0 0  0.055 0 0  0.05600000000000001 0 0  0.057 0 0  0.05800000000000001 0 0  0.059 0 0  0.06 0 0  0.06100000000000001 0 0  0.062 0 0  0.063 0 0  0.064 0 0  0.065 0 0  0.066 0 0  0.067 0 0  0.068 0 0  0.06900000000000001 0 0  0.07000000000000001 0 0  0.07100000000000001 0 0  0.07200000000000001 0 0  0.07300000000000001 0 0  0.07400000000000001 0 0  0.075 0 0  0.07600000000000001 0 0  0.077 0 0  0.07800000000000001 0 0  0.079 0 0  0.08 0 0  0.081 0 0  0.08200000000000002 0 0  0.083 0 0  0.08400000000000001 0 0  0.08500000000000001 0 0  0.08599999999999999 0 0  0.08700000000000001 0 0  0.08800000000000001 0 0  0.08900000000000001 0 0  0.09 0 0  0.091 0 0  0.09200000000000001 0 0  0.09300000000000001 0 0  0.094 0 0  0.095 0 0  0.09600000000000002 0 0  0.09700000000000002 0 0  0.098 0 0  0.099 0 0  0.1 0 0  </DataArray>
</Points>
<Cells>
<DataArray  type="UInt32"  Name="connectivity"  format="ascii">0 1  1 2  2 3  3 4  4 5  5 6  6 7  7 8  8 9  9 10  10 11  11 12  12 13  13 14  14 15  15 16  16 17  17 18  18 19  19 20  20 21  21 22  22 23  23 24  24 25  25 26  26 27  27 28  28 29  29 30  30 31  31 32  32 33  33 34  34 35  35 36  36 37  37 38  38 39  39 40  40 41  41 42  42 43  43 44  44 45  45 46  46 47  47 48  48 49  49 50  50 51  51 52  52 53  53 54  54 55  55 56  56 57  57 58  58 59  59 60  60 61  61 62  62 63  63 64  64 65  65 66  66 67  67 68  68 69  69 70  70 71  71 72  72 73  73 74  74 75  75 76  76 77  77 78  78 79  79 80  80 81  81 82  82 83  83 84  84 85  85 86  86 87  87 88  88 89  89 90  90 91  91 92  92 93  93 94  94 95  95 96  96 97  97 98  98 99  99 100  </DataArray>
<DataArray  type="UInt32"  Name="offsets"  format="ascii">2 4 6 8 10 12 14 16 18 20 22 24 26 28 30 32 34 36 38 40 42 44 46 48 50 52 54 56 58 60 62 64 66 68 70 72 74 76 78 80 82 84 86 88 90 92 94 96 98 100 102 104 106 108 110 112 114 116 118 120 122 124 126 128 130 132 134 136 138 140 142 144 146 148 150 152 154 156 158 160 162 164 166 168 170 172 174 176 178 180 182 184 186 188 190 192 194 196 198 200 </DataArray>
<DataArray  type="UInt8"  Name="types"  format="ascii">3 3 3 3 3 3 3 3 3 3 3 3 3 3 3 3 3 3 3 3 3 3 3 3 3 3 3 3 3 3 3 3 3 3 3 3 3 3 3 3 3 3 3 3 3 3 3 3 3 3 3 3 3 3 3 3 3 3 3 3 3 3 3 3 3 3 3 3 3 3 3 3 3 3 3 3 3 3 3 3 3 3 3 3 3 3 3 3 3 3 3 3 3 3 3 3 3 3 3 3 </DataArray>
</Cells>
<PointData  Scalars="f_14"> 
<DataArray  type="Float64"  Name="f_14"  format="ascii">4.3122500890441158e-04  4.3551472868835365e-04  4.4844656110004335e-04  4.7020905191852701e-04  5.0111819905773410e-04  5.4162008360968583e-04  5.9229455039845819e-04  6.5385993479808563e-04  7.2717883115706536e-04  8.1326489640519612e-04  9.1329068022246536e-04  1.0285964704557975e-03  1.1607001392138290e-03  1.3113079711941534e-03  1.4823264512500176e-03  1.6758749829399826e-03  1.8942995037887736e-03  2.1401869561940654e-03  2.4163805653263158e-03  2.7259958669823155e-03  3.0724374191757921e-03  3.4594161213012562e-03  3.8909670540256966e-03  4.3714677416972457e-03  4.9056567270766250e-03  5.4986523356788308e-03  6.1559714940583859e-03  6.8835484530982375e-03  7.6877532539036987e-03  8.5754097604092434e-03  9.5538130694449112e-03  1.0630746095963442e-02  1.1814495118596797e-02  1.3113864058903177e-02  1.4538187256805394e-02  1.6097340495041711e-02  1.7801750017191323e-02  1.9662399277242698e-02  2.1690833153990976e-02  2.3899159361024585e-02  2.6300046782930693e-02  2.8906720470843611e-02  3.1732953035795201e-02  3.4793052186703026e-02  3.8101844171420908e-02  4.1674652894235192e-02  4.5527274501629890e-02  4.9675947250151099e-02  5.4137316495823040e-02  5.8928394673795993e-02  6.4066516169708349e-02  6.9569287020508658e-02  7.5454529422078656e-02  8.1740221063707597e-02  8.8444429355046580e-02  9.5585240659300838e-02  1.0318068469673369e-01  1.1124865433463507e-01  1.1980682103328685e-01  1.2887254627160016e-01  1.3846278933046921e-01  1.4859401186585089e-01  1.5928207975653291e-01  1.7054216276281819e-01  1.8238863258125698e-01  1.9483495992642713e-01  2.0789361131289102e-01  2.2157594624818674e-01  2.3589211558037906e-01  2.5085096177067778e-01  2.6645992188233997e-01  2.8272493409098143e-01  2.9965034852805389e-01  3.1723884326819141e-01  3.3549134626208077e-01  3.5440696399921473e-01  3.7398291765921721e-01  3.9421448747631938e-01  4.1509496599912676e-01  4.3661562087713141e-01  4.5876566774689131e-01  4.8153225372467434e-01  5.0490045193926247e-01  5.2885326745904127e-01  5.5337165488222673e-01  5.7843454776882952e-01  6.0401889999867120e-01  6.3009973904233685e-01  6.5665023103239406e-01  6.8364175742164390e-01  7.1104400291457603e-01  7.3882505425883338e-01  7.6695150938634482e-01  7.9538859630008252e-01  8.2410030101313436e-01  8.5304950376308863e-01  8.8219812264753372e-01  9.1150726375675517e-01  9.4093737681827638e-01  9.7044841531550130e-01  1.0000000000000000e+00  </DataArray> 
</PointData> 
</Piece>
</UnstructuredGrid>
</VTKFile>