<?xml version="1.0"?>
<VTKFile type="UnstructuredGrid"  version="0.1"  >
<UnstructuredGrid>
<Piece  NumberOfPoints="101" NumberOfCells="100">
<Points>
<DataArray  type="Float64"  NumberOfComponents="3"  format="ascii">0 0 0  0.001 0 0  0.002 0 0  0.003 0 0  0.004 0 0  0.005 0 0  0.006000000000000001 0 0  0.007000000000000001 0 0  0.008 0 0  0.009000000000000001 0 0  0.01 0 0  0.011 0 0  0.012 0 0  0.013 0 0  0.014 0 0  0.015 0 0  0.016 0 0  0.017 0 0  0.018 0 0  0.019 0 0  0.02 0 0  0.021 0 0  0.022 0 0  0.023 0 0  0.024 0 0  0.025 0 0  0.026 0 0  0.027 0 0  0.028 0 0  0.029 0 0  0.03 0 0  0.031 0 0  0.032 0 0  0.033 0 0  0.034 0 0  0.035 0 0  0.036 0 0  0.03700000000000001 0 0  0.03800000000000001 0 0  0.03900000000000001 0 0  0.04 0 0  0.04100000000000001 0 0  0.042 0 0  0.043 0 0  0.044 0 0  0.045 0 0  0.04600000000000001 0 0  0.047 0 0  0.04800000000000001 0 0  0.049 0 0  0.05 0 0  0.051 0 0  0.052 0 0  0.05300000000000001 0 0  0.05400000000000001 0 0  0.055 0 0  0.05600000000000001 0 0  0.057 0 0  0.05800000000000001 0 0  0.059 0 0  0.06 0 0  0.06100000000000001 0 0  0.062 0 0  0.063 0 0  0.064 0 0  0.065 0 0  0.066 0 0  0.067 0 0  0.068 0 0  0.06900000000000001 0 0  0.07000000000000001 0 0  0.07100000000000001 0 0  0.07200000000000001 0 0  0.07300000000000001 0 0  0.07400000000000001 0 0  0.075 0 0  0.07600000000000001 0 0  0.077 0 0  0.07800000000000001 0 0  0.079 0 0  0.08 0 0  0.081 0 0  0.08200000000000002 0 0  0.083 0 0  0.08400000000000001 0 0  0.08500000000000001 0 0  0.08599999999999999 0 0  0.08700000000000001 0 0  0.08800000000000001 0 0  0.08900000000000001 0 0  0.09 0 0  0.091 0 0  0.09200000000000001 0 0  0.09300000000000001 0 0  0.094 0 0  0.095 0 0  0.09600000000000002 0 0  0.09700000000000002 0 0  0.098 0 0  0.099 0 0  0.1 0 0  </DataArray>
</Points>
<Cells>
<DataArray  type="UInt32"  Name="connectivity"  format="ascii">0 1  1 2  2 3  3 4  4 5  5 6  6 7  7 8  8 9  9 10  10 11  11 12  12 13  13 14  14 15  15 16  16 17  17 18  18 19  19 20  20 21  21 22  22 23  23 24  24 25  25 26  26 27  27 28  28 29  29 30  30 31  31 32  32 33  33 34  34 35  35 36  36 37  37 38  38 39  39 40  40 41  41 42  42 43  43 44  44 45  45 46  46 47  47 48  48 49  49 50  50 51  51 52  52 53  53 54  54 55  55 56  56 57  57 58  58 59  59 60  60 61  61 62  62 63  63 64  64 65  65 66  66 67  67 68  68 69  69 70  70 71  71 72  72 73  73 74  74 75  75 76  76 77  77 78  78 79  79 80  80 81  81 82  82 83  83 84  84 85  85 86  86 87  87 88  88 89  89 90  90 91  91 92  92 93  93 94  94 95  95 96  96 97  97 98  98 99  99 100  </DataArray>
<DataArray  type="UInt32"  Name="offsets"  format="ascii">2 4 6 8 10 12 14 16 18 20 22 24 26 28 30 32 34 36 38 40 42 44 46 48 50 52 54 56 58 60 62 64 66 68 70 72 74 76 78 80 82 84 86 88 90 92 94 96 98 100 102 104 106 108 110 112 114 116 118 120 122 124 126 128 130 132 134 136 138 140 142 144 146 148 150 152 154 156 158 160 162 164 166 168 170 172 174 176 178 180 182 184 186 188 190 192 194 196 198 200 </DataArray>
<DataArray  type="UInt8"  Name="types"  format="ascii">3 3 3 3 3 3 3 3 3 3 3 3 3 3 3 3 3 3 3 3 3 3 3 3 3 3 3 3 3 3 3 3 3 3 3 3 3 3 3 3 3 3 3 3 3 3 3 3 3 3 3 3 3 3 3 3 3 3 3 3 3 3 3 3 3 3 3 3 3 3 3 3 3 3 3 3 3 3 3 3 3 3 3 3 3 3 3 3 3 3 3 3 3 3 3 3 3 3 3 3 </DataArray>
</Cells>
<PointData  Scalars="f_14"> 
<DataArray  type="Float64"  Name="f_14"  format="ascii">5.0662979592807330e-06  5.1945700519677734e-06  5.5847886898831939e-06  6.2533377616449139e-06  7.2281169558436796e-06  8.5494450518555057e-06  1.0271351575893907e-05  1.2463284076863179e-05  1.5212266346296732e-05  1.8625551168919521e-05  2.2833819666063230e-05  2.7994987990774896e-05  3.4298691042411285e-05  4.1971521962424639e-05  5.1283115402986053e-05  6.2553171852800635e-05  7.6159529559649143e-05  9.2547399676905199e-05  1.1223988901956904e-04  1.3584994304814227e-04  1.6409384917409064e-04  1.9780644692995924e-04  2.3795819666437814e-04  2.8567426186436383e-04  3.4225576159623347e-04  4.0920334848116327e-04  4.8824326364227801e-04  5.8135601271426616e-04  6.9080779581491005e-04  8.1918480885435311e-04  9.6943051321959830e-04  1.1448859452517315e-03  1.3493331055949730e-03  1.5870414310495380e-03  1.8628173076777348e-03  2.1820565333512203e-03  2.5507995805458565e-03  2.9757894459719091e-03  3.4645318026982281e-03  4.0253570930811689e-03  4.6674841175177546e-03  5.4010845854850324e-03  6.2373480023966803e-03  7.1885461696255919e-03  8.2680964769623732e-03  9.4906230683996264e-03  1.0872014865276662e-02  1.2429479337538759e-02  1.4181590826417453e-02  1.6148332142655469e-02  1.8351128096069109e-02  2.0812869557443263e-02  2.3557926615236553e-02  2.6612149370069286e-02  3.0002854912147322e-02  3.3758799053168316e-02  3.7910131437177613e-02  4.2488332736305173e-02  4.7526132748968705e-02  5.3057408361146564e-02  5.9117060506370209e-02  6.5740869467187477e-02  7.2965328099391560e-02  8.0827452828935331e-02  8.9364572568041076e-02  9.8614096018676156e-02  1.0861325817458324e-01  1.1939884719295935e-01  1.3100691317843810e-01  1.4347246079932574e-01  1.5682912803254775e-01  1.7110885370243406e-01  1.8634153683188853e-01  2.0255469115497474e-01  2.1977309843974960e-01  2.3801846453162476e-01  2.5730908224322452e-01  2.7765950537969780e-01  2.9908023829246250e-01  3.2157744539389582e-01  3.4515268503617857e-01  3.6980267205596395e-01  3.9551907311091716e-01  4.2228833868382543e-01  4.5009157530594041e-01  4.7890446115596852e-01  5.0869720772881311e-01  5.3943456974441728e-01  5.7107590488899340e-01  6.0357528435713348e-01  6.3688165450342205e-01  6.7093904922715797e-01  7.0568685201520442e-01  7.4106010586815585e-01  7.7698986864652764e-01  8.1340361070923806e-01  8.5022565108874482e-01  8.8737762786779728e-01  9.2477899790304974e-01  9.6234756059092808e-01  1.0000000000000000e+00  </DataArray> 
</PointData> 
</Piece>
</UnstructuredGrid>
</VTKFile>