<?xml version="1.0"?>
<VTKFile type="UnstructuredGrid"  version="0.1"  >
<UnstructuredGrid>
<Piece  NumberOfPoints="101" NumberOfCells="100">
<Points>
<DataArray  type="Float64"  NumberOfComponents="3"  format="ascii">0 0 0  0.001 0 0  0.002 0 0  0.003 0 0  0.004 0 0  0.005 0 0  0.006000000000000001 0 0  0.007000000000000001 0 0  0.008 0 0  0.009000000000000001 0 0  0.01 0 0  0.011 0 0  0.012 0 0  0.013 0 0  0.014 0 0  0.015 0 0  0.016 0 0  0.017 0 0  0.018 0 0  0.019 0 0  0.02 0 0  0.021 0 0  0.022 0 0  0.023 0 0  0.024 0 0  0.025 0 0  0.026 0 0  0.027 0 0  0.028 0 0  0.029 0 0  0.03 0 0  0.031 0 0  0.032 0 0  0.033 0 0  0.034 0 0  0.035 0 0  0.036 0 0  0.03700000000000001 0 0  0.03800000000000001 0 0  0.03900000000000001 0 0  0.04 0 0  0.04100000000000001 0 0  0.042 0 0  0.043 0 0  0.044 0 0  0.045 0 0  0.04600000000000001 0 0  0.047 0 0  0.04800000000000001 0 0  0.049 0 0  0.05 0 0  0.051 0 0  0.052 0 0  0.05300000000000001 0 0  0.05400000000000001 0 0  0.055 0 0  0.05600000000000001 0 0  0.057 0 0  0.05800000000000001 0 0  0.059 0 0  0.06 0 0  0.06100000000000001 0 0  0.062 0 0  0.063 0 0  0.064 0 0  0.065 0 0  0.066 0 0  0.067 0 0  0.068 0 0  0.06900000000000001 0 0  0.07000000000000001 0 0  0.07100000000000001 0 0  0.07200000000000001 0 0  0.07300000000000001 0 0  0.07400000000000001 0 0  0.075 0 0  0.07600000000000001 0 0  0.077 0 0  0.07800000000000001 0 0  0.079 0 0  0.08 0 0  0.081 0 0  0.08200000000000002 0 0  0.083 0 0  0.08400000000000001 0 0  0.08500000000000001 0 0  0.08599999999999999 0 0  0.08700000000000001 0 0  0.08800000000000001 0 0  0.08900000000000001 0 0  0.09 0 0  0.091 0 0  0.09200000000000001 0 0  0.09300000000000001 0 0  0.094 0 0  0.095 0 0  0.09600000000000002 0 0  0.09700000000000002 0 0  0.098 0 0  0.099 0 0  0.1 0 0  </DataArray>
</Points>
<Cells>
<DataArray  type="UInt32"  Name="connectivity"  format="ascii">0 1  1 2  2 3  3 4  4 5  5 6  6 7  7 8  8 9  9 10  10 11  11 12  12 13  13 14  14 15  15 16  16 17  17 18  18 19  19 20  20 21  21 22  22 23  23 24  24 25  25 26  26 27  27 28  28 29  29 30  30 31  31 32  32 33  33 34  34 35  35 36  36 37  37 38  38 39  39 40  40 41  41 42  42 43  43 44  44 45  45 46  46 47  47 48  48 49  49 50  50 51  51 52  52 53  53 54  54 55  55 56  56 57  57 58  58 59  59 60  60 61  61 62  62 63  63 64  64 65  65 66  66 67  67 68  68 69  69 70  70 71  71 72  72 73  73 74  74 75  75 76  76 77  77 78  78 79  79 80  80 81  81 82  82 83  83 84  84 85  85 86  86 87  87 88  88 89  89 90  90 91  91 92  92 93  93 94  94 95  95 96  96 97  97 98  98 99  99 100  </DataArray>
<DataArray  type="UInt32"  Name="offsets"  format="ascii">2 4 6 8 10 12 14 16 18 20 22 24 26 28 30 32 34 36 38 40 42 44 46 48 50 52 54 56 58 60 62 64 66 68 70 72 74 76 78 80 82 84 86 88 90 92 94 96 98 100 102 104 106 108 110 112 114 116 118 120 122 124 126 128 130 132 134 136 138 140 142 144 146 148 150 152 154 156 158 160 162 164 166 168 170 172 174 176 178 180 182 184 186 188 190 192 194 196 198 200 </DataArray>
<DataArray  type="UInt8"  Name="types"  format="ascii">3 3 3 3 3 3 3 3 3 3 3 3 3 3 3 3 3 3 3 3 3 3 3 3 3 3 3 3 3 3 3 3 3 3 3 3 3 3 3 3 3 3 3 3 3 3 3 3 3 3 3 3 3 3 3 3 3 3 3 3 3 3 3 3 3 3 3 3 3 3 3 3 3 3 3 3 3 3 3 3 3 3 3 3 3 3 3 3 3 3 3 3 3 3 3 3 3 3 3 3 </DataArray>
</Cells>
<PointData  Scalars="f_14"> 
<DataArray  type="Float64"  Name="f_14"  format="ascii">1.2591561273567321e-03  1.2679750257524889e-03  1.2945199417124563e-03  1.3390559771961697e-03  1.4020264325230807e-03  1.4840549958027110e-03  1.5859487957617087e-03  1.7087023054194251e-03  1.8535020802339589e-03  2.0217323103331112e-03  2.2149811622257350e-03  2.4350478809287107e-03  2.6839506187174159e-03  2.9639349516922559e-03  3.2774830400351170e-03  3.6273233821980432e-03  4.0164411073192307e-03  4.4480887439027174e-03  4.9257973962399202e-03  5.4533882532130581e-03  6.0349843470308973e-03  6.6750224721429906e-03  7.3782651671054859e-03  8.1498126545845873e-03  8.9951146270468713e-03  9.9199817580718028e-03  1.0930596811713194e-02  1.2033525215022886e-02  1.3235724951831063e-02  1.4544555629258122e-02  1.5967786562327141e-02  1.7513603716571180e-02  1.9190615343810048e-02  2.1007856142433702e-02  2.2974789770702931e-02  2.5101309539892865e-02  2.7397737113689473e-02  2.9874819041229836e-02  3.2543720953674811e-02  3.5416019258332071e-02  3.8503690170214003e-02  4.1819095928613173e-02  4.5374968055888455e-02  4.9184387527245417e-02  5.3260761733908507e-02  5.7617798137754771e-02  6.2269474533211487e-02  6.7230005851994679e-02  7.2513807468049390e-02  7.8135454983762592e-02  8.4109640504076461e-02  9.0451125432391893e-02  9.7174689850982016e-02  1.0429507857883664e-01  1.1182694403122925e-01  1.1978478603759428e-01  1.2818288880725898e-01  1.3703525526589855e-01  1.4635553901896525e-01  1.5615697423143701e-01  1.6645230374570200e-01  1.7725370579085606e-01  1.8857271966678382e-01  2.0042017081472513e-01  2.1280609571221384e-01  2.2573966705394816e-01  2.3922911970092148e-01  2.5328167789766709e-01  2.6790348427140398e-01  2.8309953113690334e-01  2.9887359463674240e-01  3.1522817224802419e-01  3.3216442418341280e-01  3.4968211920629477e-01  3.6777958536691641e-01  3.8645366614839566e-01  4.0569968248856159e-01  4.2551140111566577e-01  4.4588100960328053e-01  4.6679909851224921e-01  4.8825465094569875e-01  5.1023503979704055e-01  5.3272603292102150e-01  5.5571180640453699e-01  5.7917496605761132e-01  6.0309657718610332e-01  6.2745620264691293e-01  6.5223194912425264e-01  6.7740052150253371e-01  7.0293728514824316e-01  7.2881633585042171e-01  7.5501057710772224e-01  7.8149180439009680e-01  8.0823079594562319e-01  8.3519740966840883e-01  8.6236068549250855e-01  8.8968895272993043e-01  9.1714994172857378e-01  9.4471089918883588e-01  9.7233870644602272e-01  1.0000000000000000e+00  </DataArray> 
</PointData> 
</Piece>
</UnstructuredGrid>
</VTKFile>