<?xml version="1.0"?>
<VTKFile type="UnstructuredGrid"  version="0.1"  >
<UnstructuredGrid>
<Piece  NumberOfPoints="101" NumberOfCells="100">
<Points>
<DataArray  type="Float64"  NumberOfComponents="3"  format="ascii">0 0 0  0.001 0 0  0.002 0 0  0.003 0 0  0.004 0 0  0.005 0 0  0.006000000000000001 0 0  0.007000000000000001 0 0  0.008 0 0  0.009000000000000001 0 0  0.01 0 0  0.011 0 0  0.012 0 0  0.013 0 0  0.014 0 0  0.015 0 0  0.016 0 0  0.017 0 0  0.018 0 0  0.019 0 0  0.02 0 0  0.021 0 0  0.022 0 0  0.023 0 0  0.024 0 0  0.025 0 0  0.026 0 0  0.027 0 0  0.028 0 0  0.029 0 0  0.03 0 0  0.031 0 0  0.032 0 0  0.033 0 0  0.034 0 0  0.035 0 0  0.036 0 0  0.03700000000000001 0 0  0.03800000000000001 0 0  0.03900000000000001 0 0  0.04 0 0  0.04100000000000001 0 0  0.042 0 0  0.043 0 0  0.044 0 0  0.045 0 0  0.04600000000000001 0 0  0.047 0 0  0.04800000000000001 0 0  0.049 0 0  0.05 0 0  0.051 0 0  0.052 0 0  0.05300000000000001 0 0  0.05400000000000001 0 0  0.055 0 0  0.05600000000000001 0 0  0.057 0 0  0.05800000000000001 0 0  0.059 0 0  0.06 0 0  0.06100000000000001 0 0  0.062 0 0  0.063 0 0  0.064 0 0  0.065 0 0  0.066 0 0  0.067 0 0  0.068 0 0  0.06900000000000001 0 0  0.07000000000000001 0 0  0.07100000000000001 0 0  0.07200000000000001 0 0  0.07300000000000001 0 0  0.07400000000000001 0 0  0.075 0 0  0.07600000000000001 0 0  0.077 0 0  0.07800000000000001 0 0  0.079 0 0  0.08 0 0  0.081 0 0  0.08200000000000002 0 0  0.083 0 0  0.08400000000000001 0 0  0.08500000000000001 0 0  0.08599999999999999 0 0  0.08700000000000001 0 0  0.08800000000000001 0 0  0.08900000000000001 0 0  0.09 0 0  0.091 0 0  0.09200000000000001 0 0  0.09300000000000001 0 0  0.094 0 0  0.095 0 0  0.09600000000000002 0 0  0.09700000000000002 0 0  0.098 0 0  0.099 0 0  0.1 0 0  </DataArray>
</Points>
<Cells>
<DataArray  type="UInt32"  Name="connectivity"  format="ascii">0 1  1 2  2 3  3 4  4 5  5 6  6 7  7 8  8 9  9 10  10 11  11 12  12 13  13 14  14 15  15 16  16 17  17 18  18 19  19 20  20 21  21 22  22 23  23 24  24 25  25 26  26 27  27 28  28 29  29 30  30 31  31 32  32 33  33 34  34 35  35 36  36 37  37 38  38 39  39 40  40 41  41 42  42 43  43 44  44 45  45 46  46 47  47 48  48 49  49 50  50 51  51 52  52 53  53 54  54 55  55 56  56 57  57 58  58 59  59 60  60 61  61 62  62 63  63 64  64 65  65 66  66 67  67 68  68 69  69 70  70 71  71 72  72 73  73 74  74 75  75 76  76 77  77 78  78 79  79 80  80 81  81 82  82 83  83 84  84 85  85 86  86 87  87 88  88 89  89 90  90 91  91 92  92 93  93 94  94 95  95 96  96 97  97 98  98 99  99 100  </DataArray>
<DataArray  type="UInt32"  Name="offsets"  format="ascii">2 4 6 8 10 12 14 16 18 20 22 24 26 28 30 32 34 36 38 40 42 44 46 48 50 52 54 56 58 60 62 64 66 68 70 72 74 76 78 80 82 84 86 88 90 92 94 96 98 100 102 104 106 108 110 112 114 116 118 120 122 124 126 128 130 132 134 136 138 140 142 144 146 148 150 152 154 156 158 160 162 164 166 168 170 172 174 176 178 180 182 184 186 188 190 192 194 196 198 200 </DataArray>
<DataArray  type="UInt8"  Name="types"  format="ascii">3 3 3 3 3 3 3 3 3 3 3 3 3 3 3 3 3 3 3 3 3 3 3 3 3 3 3 3 3 3 3 3 3 3 3 3 3 3 3 3 3 3 3 3 3 3 3 3 3 3 3 3 3 3 3 3 3 3 3 3 3 3 3 3 3 3 3 3 3 3 3 3 3 3 3 3 3 3 3 3 3 3 3 3 3 3 3 3 3 3 3 3 3 3 3 3 3 3 3 3 </DataArray>
</Cells>
<PointData  Scalars="f_14"> 
<DataArray  type="Float64"  Name="f_14"  format="ascii">1.5527599242923853e-05  1.5811317385273900e-05  1.6671270287347141e-05  1.8134069277881113e-05  2.0244789784847972e-05  2.3068068539501040e-05  2.6689664476266692e-05  3.1218508247588511e-05  3.6789272533895946e-05  4.3565502680964596e-05  5.1743354643531965e-05  6.1555994748375539e-05  7.3278723393172158e-05  8.7234892436108979e-05  1.0380269365586383e-04  1.2342290320430165e-04  1.4660767434674025e-04  1.7395047787625975e-04  2.0613729626446436e-04  2.4395918371074838e-04  2.8832630958777988e-04  3.4028360713681232e-04  4.0102815239821275e-04  4.7192839999745154e-04  5.5454540224421020e-04  6.5065613571572295e-04  7.6227905473496345e-04  8.9170198355007792e-04  1.0415124481889498e-03  1.2146305345086337e-03  1.4143443404893740e-03  1.6443480679507942e-03  1.9087827712261029e-03  2.2122797475823339e-03  2.5600065160284874e-03  2.9577152873766074e-03  3.4117937788563455e-03  3.9293181711675448e-03  4.5181079446345715e-03  5.1867822642760273e-03  5.9448175114463547e-03  6.8026054827277291e-03  7.7715116956169677e-03  8.8639331561225724e-03  1.0093354856723450e-02  1.1474404185519763e-02  1.3022902340316387e-02  1.4755911756521712e-02  1.6691778477028466e-02  1.8850168317760044e-02  2.1252095616585188e-02  2.3919943298221145e-02  2.6877472946069410e-02  3.0149823546210323e-02  3.3763497561585420e-02  3.7746333008216025e-02  4.2127460242515229e-02  4.6937242231516685e-02  5.2207197168062804e-02  5.7969902412192444e-02  6.4258878889248278e-02  7.1108455255147501e-02  7.8553611349821431e-02  8.6629800700341666e-02  9.5372752104313938e-02  1.0481825061958484e-01  1.1500189860520159e-01  1.2595885779714250e-01  1.3772357375603839e-01  1.5032948438761040e-01  1.6380871460383403e-01  1.7819175955724176e-01  1.9350715923511375e-01  2.0978116753699549e-01  2.2703741927019155e-01  2.4529659877570303e-01  2.6457611413370291e-01  2.8488978108556273e-01  3.0624752094169899e-01  3.2865507681475226e-01  3.5211375252059568e-01  3.7662017842100926e-01  4.0216610833873034e-01  4.2873825145635064e-01  4.5631814281530597e-01  4.8488205566159803e-01  5.1440095844435441e-01  5.4484051876686745e-01  5.7616115602414886e-01  6.0831814384459204e-01  6.4126176279574554e-01  6.7493750312655432e-01  7.0928631661268571e-01  7.4424491586062380e-01  7.7974611872337130e-01  8.1571923479940267e-01  8.5209049034035067e-01  8.8878348729474366e-01  9.2571969167709400e-01  9.6281894598485851e-01  1.0000000000000000e+00  </DataArray> 
</PointData> 
</Piece>
</UnstructuredGrid>
</VTKFile>