<?xml version="1.0"?>
<VTKFile type="UnstructuredGrid"  version="0.1"  >
<UnstructuredGrid>
<Piece  NumberOfPoints="101" NumberOfCells="100">
<Points>
<DataArray  type="Float64"  NumberOfComponents="3"  format="ascii">0 0 0  0.001 0 0  0.002 0 0  0.003 0 0  0.004 0 0  0.005 0 0  0.006000000000000001 0 0  0.007000000000000001 0 0  0.008 0 0  0.009000000000000001 0 0  0.01 0 0  0.011 0 0  0.012 0 0  0.013 0 0  0.014 0 0  0.015 0 0  0.016 0 0  0.017 0 0  0.018 0 0  0.019 0 0  0.02 0 0  0.021 0 0  0.022 0 0  0.023 0 0  0.024 0 0  0.025 0 0  0.026 0 0  0.027 0 0  0.028 0 0  0.029 0 0  0.03 0 0  0.031 0 0  0.032 0 0  0.033 0 0  0.034 0 0  0.035 0 0  0.036 0 0  0.03700000000000001 0 0  0.03800000000000001 0 0  0.03900000000000001 0 0  0.04 0 0  0.04100000000000001 0 0  0.042 0 0  0.043 0 0  0.044 0 0  0.045 0 0  0.04600000000000001 0 0  0.047 0 0  0.04800000000000001 0 0  0.049 0 0  0.05 0 0  0.051 0 0  0.052 0 0  0.05300000000000001 0 0  0.05400000000000001 0 0  0.055 0 0  0.05600000000000001 0 0  0.057 0 0  0.05800000000000001 0 0  0.059 0 0  0.06 0 0  0.06100000000000001 0 0  0.062 0 0  0.063 0 0  0.064 0 0  0.065 0 0  0.066 0 0  0.067 0 0  0.068 0 0  0.06900000000000001 0 0  0.07000000000000001 0 0  0.07100000000000001 0 0  0.07200000000000001 0 0  0.07300000000000001 0 0  0.07400000000000001 0 0  0.075 0 0  0.07600000000000001 0 0  0.077 0 0  0.07800000000000001 0 0  0.079 0 0  0.08 0 0  0.081 0 0  0.08200000000000002 0 0  0.083 0 0  0.08400000000000001 0 0  0.08500000000000001 0 0  0.08599999999999999 0 0  0.08700000000000001 0 0  0.08800000000000001 0 0  0.08900000000000001 0 0  0.09 0 0  0.091 0 0  0.09200000000000001 0 0  0.09300000000000001 0 0  0.094 0 0  0.095 0 0  0.09600000000000002 0 0  0.09700000000000002 0 0  0.098 0 0  0.099 0 0  0.1 0 0  </DataArray>
</Points>
<Cells>
<DataArray  type="UInt32"  Name="connectivity"  format="ascii">0 1  1 2  2 3  3 4  4 5  5 6  6 7  7 8  8 9  9 10  10 11  11 12  12 13  13 14  14 15  15 16  16 17  17 18  18 19  19 20  20 21  21 22  22 23  23 24  24 25  25 26  26 27  27 28  28 29  29 30  30 31  31 32  32 33  33 34  34 35  35 36  36 37  37 38  38 39  39 40  40 41  41 42  42 43  43 44  44 45  45 46  46 47  47 48  48 49  49 50  50 51  51 52  52 53  53 54  54 55  55 56  56 57  57 58  58 59  59 60  60 61  61 62  62 63  63 64  64 65  65 66  66 67  67 68  68 69  69 70  70 71  71 72  72 73  73 74  74 75  75 76  76 77  77 78  78 79  79 80  80 81  81 82  82 83  83 84  84 85  85 86  86 87  87 88  88 89  89 90  90 91  91 92  92 93  93 94  94 95  95 96  96 97  97 98  98 99  99 100  </DataArray>
<DataArray  type="UInt32"  Name="offsets"  format="ascii">2 4 6 8 10 12 14 16 18 20 22 24 26 28 30 32 34 36 38 40 42 44 46 48 50 52 54 56 58 60 62 64 66 68 70 72 74 76 78 80 82 84 86 88 90 92 94 96 98 100 102 104 106 108 110 112 114 116 118 120 122 124 126 128 130 132 134 136 138 140 142 144 146 148 150 152 154 156 158 160 162 164 166 168 170 172 174 176 178 180 182 184 186 188 190 192 194 196 198 200 </DataArray>
<DataArray  type="UInt8"  Name="types"  format="ascii">3 3 3 3 3 3 3 3 3 3 3 3 3 3 3 3 3 3 3 3 3 3 3 3 3 3 3 3 3 3 3 3 3 3 3 3 3 3 3 3 3 3 3 3 3 3 3 3 3 3 3 3 3 3 3 3 3 3 3 3 3 3 3 3 3 3 3 3 3 3 3 3 3 3 3 3 3 3 3 3 3 3 3 3 3 3 3 3 3 3 3 3 3 3 3 3 3 3 3 3 </DataArray>
</Cells>
<PointData  Scalars="f_14"> 
<DataArray  type="Float64"  Name="f_14"  format="ascii">3.7625829092926017e-13  4.0514561339777630e-13  4.9614094390090430e-13  6.6287746061403542e-13  9.3027715487210059e-13  1.3381772102056238e-12  1.9471054177853517e-12  2.8470161106745387e-12  4.1702078524075583e-12  6.1102183342964434e-12  8.9493063434667521e-12  1.3098291676173841e-11  1.9154181814966929e-11  2.7983381765004848e-11  4.0841661564097965e-11  5.9546869891102273e-11  8.6727231944084115e-11  1.2617780052338646e-10  1.8337142917506179e-10  2.6619017215238239e-10  3.8597062117211310e-10  5.5899562253458238e-10  8.0861962163667198e-10  1.1682918686019165e-09  1.6858496433668556e-09  2.4296046297808647e-09  3.4969562888294572e-09  5.0265595265729963e-09  7.2154816355359944e-09  1.0343348500752604e-08  1.4806261143275784e-08  2.1164340632132244e-08  3.0208240289430184e-08  4.3051994728107826e-08  6.1262351539456331e-08  8.7038515698444896e-08  1.2346137867261636e-07  1.7483826793828784e-07  2.4717865127948037e-07  3.4884886988484781e-07  4.9147090882768757e-07  6.9115281345118722e-07  9.7016839668941998e-07  1.3592436297497322e-06  1.9006594666887144e-06  2.6524494913312872e-06  3.6940602962529879e-06  5.1339586306616187e-06  7.1198191269526454e-06  9.8521183944092987e-06  1.3602205722510095e-05  1.8736229695526544e-05  2.5746687748780059e-05  3.5293848036935368e-05  4.8259887495430641e-05  6.5819315275114434e-05  8.9530125512422333e-05  1.2145116488367445e-04  1.6429242202841557e-04  2.2160635413637488e-04  2.9802995576951231e-04  3.9958902413323805e-04  5.3407793683923107e-04  7.1153015268939014e-04  9.4479644942164836e-04  1.2502494457381239e-03  1.6486339721401046e-03  2.1660830315559693e-03  2.8353180147852580e-03  3.6970490050091268e-03  4.8015858318583918e-03  6.2106623624772553e-03  7.9994646555850545e-03  1.0258837391202301e-02  1.3097621871891688e-02  1.6645052549519906e-02  2.1053107523908716e-02  2.6498672406047818e-02  3.3185337717112039e-02  4.1344609938883677e-02  5.1236278894293670e-02  6.3147653979493179e-02  7.7391364718408753e-02  9.4301423927398306e-02  1.1422728166932587e-01  1.3752566201441632e-01  1.6455007784812917e-01  1.9563806421178861e-01  2.3109635624596817e-01  2.7118445626112936e-01  3.1609727143441857e-01  3.6594773754482141e-01  4.2075054699866565e-01  4.8040823899575619e-01  5.4470095359821269e-01  6.1328107224530093e-01  6.8567374850050200e-01  7.6128397485050581e-01  8.3941035520894391e-01  9.1926520083636110e-01  1.0000000000000000e+00  </DataArray> 
</PointData> 
</Piece>
</UnstructuredGrid>
</VTKFile>