<?xml version="1.0"?>
<VTKFile type="UnstructuredGrid"  version="0.1"  >
<UnstructuredGrid>
<Piece  NumberOfPoints="101" NumberOfCells="100">
<Points>
<DataArray  type="Float64"  NumberOfComponents="3"  format="ascii">0 0 0  0.001 0 0  0.002 0 0  0.003 0 0  0.004 0 0  0.005 0 0  0.006000000000000001 0 0  0.007000000000000001 0 0  0.008 0 0  0.009000000000000001 0 0  0.01 0 0  0.011 0 0  0.012 0 0  0.013 0 0  0.014 0 0  0.015 0 0  0.016 0 0  0.017 0 0  0.018 0 0  0.019 0 0  0.02 0 0  0.021 0 0  0.022 0 0  0.023 0 0  0.024 0 0  0.025 0 0  0.026 0 0  0.027 0 0  0.028 0 0  0.029 0 0  0.03 0 0  0.031 0 0  0.032 0 0  0.033 0 0  0.034 0 0  0.035 0 0  0.036 0 0  0.03700000000000001 0 0  0.03800000000000001 0 0  0.03900000000000001 0 0  0.04 0 0  0.04100000000000001 0 0  0.042 0 0  0.043 0 0  0.044 0 0  0.045 0 0  0.04600000000000001 0 0  0.047 0 0  0.04800000000000001 0 0  0.049 0 0  0.05 0 0  0.051 0 0  0.052 0 0  0.05300000000000001 0 0  0.05400000000000001 0 0  0.055 0 0  0.05600000000000001 0 0  0.057 0 0  0.05800000000000001 0 0  0.059 0 0  0.06 0 0  0.06100000000000001 0 0  0.062 0 0  0.063 0 0  0.064 0 0  0.065 0 0  0.066 0 0  0.067 0 0  0.068 0 0  0.06900000000000001 0 0  0.07000000000000001 0 0  0.07100000000000001 0 0  0.07200000000000001 0 0  0.07300000000000001 0 0  0.07400000000000001 0 0  0.075 0 0  0.07600000000000001 0 0  0.077 0 0  0.07800000000000001 0 0  0.079 0 0  0.08 0 0  0.081 0 0  0.08200000000000002 0 0  0.083 0 0  0.08400000000000001 0 0  0.08500000000000001 0 0  0.08599999999999999 0 0  0.08700000000000001 0 0  0.08800000000000001 0 0  0.08900000000000001 0 0  0.09 0 0  0.091 0 0  0.09200000000000001 0 0  0.09300000000000001 0 0  0.094 0 0  0.095 0 0  0.09600000000000002 0 0  0.09700000000000002 0 0  0.098 0 0  0.099 0 0  0.1 0 0  </DataArray>
</Points>
<Cells>
<DataArray  type="UInt32"  Name="connectivity"  format="ascii">0 1  1 2  2 3  3 4  4 5  5 6  6 7  7 8  8 9  9 10  10 11  11 12  12 13  13 14  14 15  15 16  16 17  17 18  18 19  19 20  20 21  21 22  22 23  23 24  24 25  25 26  26 27  27 28  28 29  29 30  30 31  31 32  32 33  33 34  34 35  35 36  36 37  37 38  38 39  39 40  40 41  41 42  42 43  43 44  44 45  45 46  46 47  47 48  48 49  49 50  50 51  51 52  52 53  53 54  54 55  55 56  56 57  57 58  58 59  59 60  60 61  61 62  62 63  63 64  64 65  65 66  66 67  67 68  68 69  69 70  70 71  71 72  72 73  73 74  74 75  75 76  76 77  77 78  78 79  79 80  80 81  81 82  82 83  83 84  84 85  85 86  86 87  87 88  88 89  89 90  90 91  91 92  92 93  93 94  94 95  95 96  96 97  97 98  98 99  99 100  </DataArray>
<DataArray  type="UInt32"  Name="offsets"  format="ascii">2 4 6 8 10 12 14 16 18 20 22 24 26 28 30 32 34 36 38 40 42 44 46 48 50 52 54 56 58 60 62 64 66 68 70 72 74 76 78 80 82 84 86 88 90 92 94 96 98 100 102 104 106 108 110 112 114 116 118 120 122 124 126 128 130 132 134 136 138 140 142 144 146 148 150 152 154 156 158 160 162 164 166 168 170 172 174 176 178 180 182 184 186 188 190 192 194 196 198 200 </DataArray>
<DataArray  type="UInt8"  Name="types"  format="ascii">3 3 3 3 3 3 3 3 3 3 3 3 3 3 3 3 3 3 3 3 3 3 3 3 3 3 3 3 3 3 3 3 3 3 3 3 3 3 3 3 3 3 3 3 3 3 3 3 3 3 3 3 3 3 3 3 3 3 3 3 3 3 3 3 3 3 3 3 3 3 3 3 3 3 3 3 3 3 3 3 3 3 3 3 3 3 3 3 3 3 3 3 3 3 3 3 3 3 3 3 </DataArray>
</Cells>
<PointData  Scalars="f_14"> 
<DataArray  type="Float64"  Name="f_14"  format="ascii">3.5946935835362250e-04  3.6174764949286714e-04  3.6860839463767251e-04  3.8012945508241738e-04  3.9644142164662612e-04  4.1772885333252218e-04  4.4423202277389879e-04  4.7624917980364689e-04  5.1413934770062333e-04  5.5832566990466302e-04  6.0929932820695618e-04  6.6762405662522633e-04  7.3394127835016865e-04  8.0897589628959525e-04  8.9354277082443249e-04  9.8855392140705317e-04  1.0950264915539382e-03  1.2140915195829501e-03  1.3470035600866839e-03  1.4951512035774131e-03  1.6600685439393007e-03  1.8434476452256568e-03  2.0471520608807818e-03  2.2732314595763576e-03  2.5239374124508955e-03  2.8017403965367995e-03  3.1093480684517222e-03  3.4497248609061905e-03  3.8261129521132069e-03  4.2420546546403752e-03  4.7014162654711459e-03  5.2084134128760539e-03  5.7676379279614342e-03  6.3840862592736813e-03  7.0631894373907565e-03  7.8108445828178165e-03  8.6334479344986545e-03  9.5379293576294891e-03  1.0531788267981346e-02  1.1623130885363962e-02  1.2820708700961777e-02  1.4133958011810902e-02  1.5573040340446669e-02  1.7148883518536086e-02  1.8873223169943869e-02  2.0758644281030855e-02  2.2818622493958770e-02  2.5067564702345658e-02  2.7520848467828020e-02  3.0194859711067241e-02  3.3107028061734253e-02  3.6275859179375751e-02  3.9720963281324732e-02  4.3463079035641269e-02  4.7524091897329979e-02  5.1927045885863304e-02  5.6696147722671592e-02  6.1856762170332369e-02  6.7435397342587342e-02  7.3459678688218386e-02  7.9958310294758334e-02  8.6961022112846828e-02  9.4498501671998011e-02  1.0260230884718695e-01  1.1130477224689474e-01  1.2063886583131868e-01  1.3063806443884901e-01  1.4133617700437745e-01  1.5276715639939537e-01  1.6496488501606130e-01  1.7796293546025427e-01  1.9179430601658862e-01  2.0649113090546098e-01  2.2208436577169638e-01  2.3860344932849342e-01  2.5607594262998096e-01  2.7452714805989498e-01  2.9397971079955326e-01  3.1445320626976120e-01  3.3596371781961687e-01  3.5852340974806340e-01  3.8214010157483685e-01  4.0681685030532944e-01  4.3255154823290282e-01  4.5933654456162681e-01  4.8715829977634029e-01  5.1599708219481988e-01  5.4582671646384473e-01  5.7661439385928270e-01  6.0832055407068941e-01  6.4089884764474092e-01  6.7429618738453745e-01  7.0845289571636050e-01  7.4330295331735763e-01  7.7877435214025070e-01  8.1478955339217651e-01  8.5126604807259176e-01  8.8811701443523150e-01  9.2525206333890464e-01  9.6257805906310723e-01  1.0000000000000000e+00  </DataArray> 
</PointData> 
</Piece>
</UnstructuredGrid>
</VTKFile>