<?xml version="1.0"?>
<VTKFile type="UnstructuredGrid"  version="0.1"  >
<UnstructuredGrid>
<Piece  NumberOfPoints="101" NumberOfCells="100">
<Points>
<DataArray  type="Float64"  NumberOfComponents="3"  format="ascii">0 0 0  0.001 0 0  0.002 0 0  0.003 0 0  0.004 0 0  0.005 0 0  0.006000000000000001 0 0  0.007000000000000001 0 0  0.008 0 0  0.009000000000000001 0 0  0.01 0 0  0.011 0 0  0.012 0 0  0.013 0 0  0.014 0 0  0.015 0 0  0.016 0 0  0.017 0 0  0.018 0 0  0.019 0 0  0.02 0 0  0.021 0 0  0.022 0 0  0.023 0 0  0.024 0 0  0.025 0 0  0.026 0 0  0.027 0 0  0.028 0 0  0.029 0 0  0.03 0 0  0.031 0 0  0.032 0 0  0.033 0 0  0.034 0 0  0.035 0 0  0.036 0 0  0.03700000000000001 0 0  0.03800000000000001 0 0  0.03900000000000001 0 0  0.04 0 0  0.04100000000000001 0 0  0.042 0 0  0.043 0 0  0.044 0 0  0.045 0 0  0.04600000000000001 0 0  0.047 0 0  0.04800000000000001 0 0  0.049 0 0  0.05 0 0  0.051 0 0  0.052 0 0  0.05300000000000001 0 0  0.05400000000000001 0 0  0.055 0 0  0.05600000000000001 0 0  0.057 0 0  0.05800000000000001 0 0  0.059 0 0  0.06 0 0  0.06100000000000001 0 0  0.062 0 0  0.063 0 0  0.064 0 0  0.065 0 0  0.066 0 0  0.067 0 0  0.068 0 0  0.06900000000000001 0 0  0.07000000000000001 0 0  0.07100000000000001 0 0  0.07200000000000001 0 0  0.07300000000000001 0 0  0.07400000000000001 0 0  0.075 0 0  0.07600000000000001 0 0  0.077 0 0  0.07800000000000001 0 0  0.079 0 0  0.08 0 0  0.081 0 0  0.08200000000000002 0 0  0.083 0 0  0.08400000000000001 0 0  0.08500000000000001 0 0  0.08599999999999999 0 0  0.08700000000000001 0 0  0.08800000000000001 0 0  0.08900000000000001 0 0  0.09 0 0  0.091 0 0  0.09200000000000001 0 0  0.09300000000000001 0 0  0.094 0 0  0.095 0 0  0.09600000000000002 0 0  0.09700000000000002 0 0  0.098 0 0  0.099 0 0  0.1 0 0  </DataArray>
</Points>
<Cells>
<DataArray  type="UInt32"  Name="connectivity"  format="ascii">0 1  1 2  2 3  3 4  4 5  5 6  6 7  7 8  8 9  9 10  10 11  11 12  12 13  13 14  14 15  15 16  16 17  17 18  18 19  19 20  20 21  21 22  22 23  23 24  24 25  25 26  26 27  27 28  28 29  29 30  30 31  31 32  32 33  33 34  34 35  35 36  36 37  37 38  38 39  39 40  40 41  41 42  42 43  43 44  44 45  45 46  46 47  47 48  48 49  49 50  50 51  51 52  52 53  53 54  54 55  55 56  56 57  57 58  58 59  59 60  60 61  61 62  62 63  63 64  64 65  65 66  66 67  67 68  68 69  69 70  70 71  71 72  72 73  73 74  74 75  75 76  76 77  77 78  78 79  79 80  80 81  81 82  82 83  83 84  84 85  85 86  86 87  87 88  88 89  89 90  90 91  91 92  92 93  93 94  94 95  95 96  96 97  97 98  98 99  99 100  </DataArray>
<DataArray  type="UInt32"  Name="offsets"  format="ascii">2 4 6 8 10 12 14 16 18 20 22 24 26 28 30 32 34 36 38 40 42 44 46 48 50 52 54 56 58 60 62 64 66 68 70 72 74 76 78 80 82 84 86 88 90 92 94 96 98 100 102 104 106 108 110 112 114 116 118 120 122 124 126 128 130 132 134 136 138 140 142 144 146 148 150 152 154 156 158 160 162 164 166 168 170 172 174 176 178 180 182 184 186 188 190 192 194 196 198 200 </DataArray>
<DataArray  type="UInt8"  Name="types"  format="ascii">3 3 3 3 3 3 3 3 3 3 3 3 3 3 3 3 3 3 3 3 3 3 3 3 3 3 3 3 3 3 3 3 3 3 3 3 3 3 3 3 3 3 3 3 3 3 3 3 3 3 3 3 3 3 3 3 3 3 3 3 3 3 3 3 3 3 3 3 3 3 3 3 3 3 3 3 3 3 3 3 3 3 3 3 3 3 3 3 3 3 3 3 3 3 3 3 3 3 3 3 </DataArray>
</Cells>
<PointData  Scalars="f_14"> 
<DataArray  type="Float64"  Name="f_14"  format="ascii">9.7568554247793090e-03  9.7743219281323304e-03  9.8267785667759226e-03  9.9143968808943165e-03  1.0037463285768107e-02  1.0196379844949458e-02  1.0391665354132060e-02  1.0623956737128510e-02  1.0894010755754004e-02  1.1202706035788289e-02  1.1551045411544128e-02  1.1940158591906946e-02  1.2371305151022848e-02  1.2845877847096903e-02  1.3365406273016385e-02  1.3931560842729250e-02  1.4546157117482224e-02  1.5211160476149073e-02  1.5928691133952330e-02  1.6701029513894038e-02  1.7530621975155616e-02  1.8420086902595629e-02  1.9372221161258266e-02  2.0390006919494885e-02  2.1476618843885305e-02  2.2635431668612926e-02  2.3870028141285464e-02  2.5184207346386333e-02  2.6581993406575986e-02  2.8067644560919581e-02  2.9645662617779400e-02  3.1320802778556575e-02  3.3098083826674299e-02  3.4982798674140191e-02  3.6980525255680123e-02  3.9097137757772495e-02  4.1338818166896378e-02  4.3712068117905810e-02  4.6223721019615797e-02  4.8880954430392851e-02  5.1691302651737429e-02  5.4662669502477876e-02  5.7803341230210831e-02  6.1121999509963401e-02  6.4627734472649828e-02  6.8330057697684021e-02  7.2238915095009362e-02  7.6364699591733559e-02  8.0718263527424824e-02  8.5310930649827060e-02  9.0154507589190330e-02  9.5261294674458485e-02  1.0064409593809455e-01  1.0631622813820577e-01  1.1229152860671258e-01  1.1858436171042031e-01  1.2520962368782457e-01  1.3218274559811552e-01  1.3951969408993772e-01  1.4723696966577510e-01  1.5535160208313087e-01  1.6388114249567673e-01  1.7284365189597733e-01  1.8225768537593440e-01  1.9214227167139000e-01  2.0251688740302970e-01  2.1340142536640691e-01  2.2481615615915607e-01  2.3678168236278493e-01  2.4931888441933614e-01  2.6244885725912120e-01  2.7619283664406269e-01  2.9057211409127487e-01  3.0560793913267109e-01  3.2132140754783917e-01  3.3773333407834993e-01  3.5486410799116413e-01  3.7273352970590357e-01  3.9136062653442921e-01  4.1076344540023318e-01  4.3095882020846082e-01  4.5196211132349862e-01  4.7378691437866560e-01  4.9644473538997619e-01  5.1994462887160320e-01  5.4429279535266395e-01  5.6949213437139712e-01  5.9554174867148302e-01  6.2243639494393754e-01  6.5016587604420550e-01  6.7871436916502814e-01  7.0805968395856989e-01  7.3817244407291238e-01  7.6901518499505461e-01  8.0054136047127533e-01  8.3269424910217082e-01  8.6540575197962122e-01  8.9859507144171502e-01  9.3216726016428442e-01  9.6601162887878911e-01  1.0000000000000000e+00  </DataArray> 
</PointData> 
</Piece>
</UnstructuredGrid>
</VTKFile>